                         Program Version 6.1.0  -  RELEASE   -
|  1> # Geometry optimization for (AlH3)n cluster
|  2>
|  3> %pal nprocs 24  end
|  4>
|  5> %geom MaxIter 500 end
|  6>
|  7>
|  8> ! PBE def2-SV(P)
|  9> ! RKS	# closed shell for AlH3
| 10> ! D3    #  dispersion correction
| 11> ! gCP(DFT/SV(P))
| 12>
| 13> ! NoPop # population analysis not necessary
| 14>
| 15> ! DEFGRID3
| 16> ! TightSCF
| 17> ! NormalOpt
| 18>
| 19> ! SmallPrint
| 20>
| 21>
| 22> * xyzFile 0 1 start.xyz # only maingroup elements H and Al so there should be no net spin
| 23>
| 24>                          ****END OF INPUT****
 Total Charge           Charge          ....    0
 Multiplicity           Mult            ....    1
 Number of Electrons    NEL             ....  476
Dispersion correction           -0.161727275
FINAL SINGLE POINT ENERGY     -4220.510757147650
Dispersion correction             ... done (  0.2 sec)
Dispersion correction           -0.162270962
FINAL SINGLE POINT ENERGY     -4220.504324011959
Dispersion correction             ... done (  0.1 sec)
Dispersion correction           -0.161386790
FINAL SINGLE POINT ENERGY     -4220.510721843827
Dispersion correction             ... done (  0.1 sec)
FINAL SINGLE POINT ENERGY     -4220.509672953213
FINAL SINGLE POINT ENERGY     -4220.511286163961
FINAL SINGLE POINT ENERGY     -4220.511443221571
FINAL SINGLE POINT ENERGY     -4220.511744508039
FINAL SINGLE POINT ENERGY     -4220.511885952539
FINAL SINGLE POINT ENERGY     -4220.512079245370
FINAL SINGLE POINT ENERGY     -4220.512189436571
FINAL SINGLE POINT ENERGY     -4220.512835666543
FINAL SINGLE POINT ENERGY     -4220.512841820198
FINAL SINGLE POINT ENERGY     -4220.512847321203
FINAL SINGLE POINT ENERGY     -4220.512852259441
FINAL SINGLE POINT ENERGY     -4220.512856471932
FINAL SINGLE POINT ENERGY     -4220.512858993795
FINAL SINGLE POINT ENERGY     -4220.512857273859
Dispersion correction             ... done (  0.1 sec)
Dispersion correction           -0.163259190
FINAL SINGLE POINT ENERGY     -4220.512861633557
Dispersion correction             ... done (  0.1 sec)
Dispersion correction           -0.163287134
FINAL SINGLE POINT ENERGY     -4220.512865267394
Dispersion correction             ... done (  0.1 sec)
                    ***********************HURRAY********************

CARTESIAN COORDINATES (ANGSTROEM)
---------------------------------
  Zr    -0.105313    2.170699    1.307704
  Zr     0.199386   -2.099716   -1.447230
  Zr     1.844718   -1.000170    1.388987
  Zr    -1.826015    1.047200   -1.492147
  Zr     1.634535    1.041599   -1.789713
  Zr    -1.607668   -0.951137    1.671399
  O     -1.678719    0.818230    0.560407
  O      1.781092   -0.726448   -0.678198
  O     -0.046594   -1.817223    0.604297
  O      0.119410    1.955716   -0.717489
  O     -0.214440   -0.148432   -2.030855
  O      0.264394    0.235655    1.988284
  O     -1.342529    2.244930    3.149120
  O     -1.711735    3.760481    0.845962
  O      1.947900    2.234060    2.141154
  O      1.347803    4.112396    0.308854
  O     -1.404054   -3.535409   -0.848904
  O     -1.301173   -2.301793   -3.141529
  O      1.596917   -3.740018   -0.900401
  O      1.569529   -2.242374   -3.204628
  O      1.367393   -2.219742    3.188042
  O      2.729291    0.313092    3.043152
  O      2.694559   -3.008185    0.941714
  O      3.920944   -0.306386    0.814520
  O     -3.943944    0.661052   -0.803329
  O     -2.522257    3.126404   -1.177342
  O     -2.712865   -0.561645   -2.750982
  O     -1.397711    2.078092   -3.412926
  O      0.857794    2.030420   -3.638226
  O      2.311183    3.226926   -1.550748
  O      2.475001   -0.178047   -3.444451
  O      3.698833    1.081628   -0.970986
  O     -3.702692   -0.817112    0.910724
  O     -2.378070    0.246335    3.372328
  O     -2.336324   -3.033445    1.166206
  O     -0.879381   -2.063229    3.451511
  C     -2.116401    1.428991    3.745686
  C     -2.410628    3.931275   -0.208832
  C      2.568456    1.560484    3.042791
  C      2.053653    4.172508   -0.769894
  C     -2.051109   -3.815002    0.213540
  C     -2.274576   -1.550650   -3.430304
  C      2.447589   -3.859394    0.034677
  C      2.326330   -1.397352   -3.769614
  C      0.280385   -2.439154    3.804591
  C      4.369203    0.361416   -0.161875
  C     -4.374105   -0.028737    0.167509
  C     -0.314060    2.301215   -4.037373
  H     -2.831889   -1.785112   -4.383288
  H      3.041527   -4.817070    0.061281
  H      3.009909    2.150781    3.895341
  H     -2.992095    4.893678   -0.276119
  H      2.928606   -1.762574   -4.649906
  H     -0.405839    2.791134   -5.048691
  H      2.486982    5.183494   -1.025292
  H      5.485579    0.335747   -0.323909
  H     -2.426074   -4.875969    0.301822
  H     -5.477257    0.049001    0.390993
  H     -2.610848    1.798991    4.686912
  H      0.351259   -3.030507    4.761563
  Al    -3.187474    5.080948    2.811531
  Al    -4.033913    5.232881    5.783090
  H     -3.192079    6.499687    6.611049
  H     -5.575689    5.328366    6.247311
  H     -3.877135    5.939531    4.222483
  H     -3.261634    6.266201    1.718646
  H     -1.672064    5.059901    3.580923
  H     -3.114253    3.898035    5.847121
  Al    -1.499694    6.536899    7.081466
  H     -0.838067    6.015870    5.604206
  H     -1.205426    8.117387    7.251041
  H     -4.025881    3.699077    2.826587
  Al    -0.106062    5.025457    4.269276
  H      0.282696    4.229560    2.543292
  H      0.476768    3.790050    5.120754
  H     -1.292614    5.401913    8.212968
  Al     1.242139    5.474053    1.770204
  H      2.790152    5.548306    2.240475
  H      0.756649    6.290984    3.649528
  H      0.348597    6.636391    1.082699

 Multiplicity           Mult            ....    1
 Number of Electrons    NEL             ....  476
 Basis Dimension        Dim             ....  876

ORBITAL ENERGIES
----------------

  NO   OCC          E(Eh)            E(eV)
   0   2.0000     -55.397577     -1507.4447
   1   2.0000     -55.390694     -1507.2574
   2   2.0000     -55.377675     -1506.9031
   3   2.0000     -55.375904     -1506.8550
   4   2.0000     -55.371058     -1506.7231
   5   2.0000     -18.811769      -511.8943
   6   2.0000     -18.807764      -511.7853
   7   2.0000     -18.803108      -511.6586
   8   2.0000     -18.802776      -511.6495
   9   2.0000     -18.802443      -511.6405
  10   2.0000     -18.801822      -511.6236
  11   2.0000     -18.801323      -511.6100
  12   2.0000     -18.800887      -511.5981
  13   2.0000     -18.800843      -511.5969
  14   2.0000     -18.800808      -511.5960
  15   2.0000     -18.800618      -511.5908
  16   2.0000     -18.800267      -511.5813
  17   2.0000     -18.799981      -511.5735
  18   2.0000     -18.799899      -511.5713
  19   2.0000     -18.799071      -511.5487
  20   2.0000     -18.799033      -511.5477
  21   2.0000     -18.798061      -511.5212
  22   2.0000     -18.797919      -511.5174
  23   2.0000     -18.796806      -511.4871
  24   2.0000     -18.796655      -511.4830
  25   2.0000     -18.795417      -511.4493
  26   2.0000     -18.795083      -511.4402
  27   2.0000     -18.794527      -511.4251
  28   2.0000     -18.794216      -511.4166
  29   2.0000     -18.772667      -510.8302
  30   2.0000     -18.770814      -510.7798
  31   2.0000     -18.770204      -510.7632
  32   2.0000     -18.769311      -510.7389
  33   2.0000     -18.768051      -510.7046
  34   2.0000     -18.767208      -510.6817
  35   2.0000     -10.055520      -273.6246
  36   2.0000     -10.052737      -273.5489
  37   2.0000     -10.051659      -273.5195
  38   2.0000     -10.051608      -273.5182
  39   2.0000     -10.050601      -273.4907
  40   2.0000     -10.049052      -273.4486
  41   2.0000     -10.048988      -273.4469
  42   2.0000     -10.048436      -273.4318
  43   2.0000     -10.048164      -273.4244
  44   2.0000     -10.046476      -273.3785
  45   2.0000     -10.045340      -273.3476
  46   2.0000     -10.044179      -273.3160
  47   2.0000      -3.946613      -107.3928
  48   2.0000      -3.942164      -107.2717
  49   2.0000      -3.933444      -107.0344
  50   2.0000      -3.926475      -106.8448
  51   2.0000      -3.925909      -106.8294
  52   2.0000      -2.554611       -69.5145
  53   2.0000      -2.553525       -69.4849
  54   2.0000      -2.551260       -69.4233
  55   2.0000      -2.548547       -69.3495
  56   2.0000      -2.548519       -69.3487
  57   2.0000      -2.543357       -69.2083
  58   2.0000      -2.541831       -69.1667
  59   2.0000      -2.539572       -69.1053
  60   2.0000      -2.535217       -68.9868
  61   2.0000      -2.535120       -68.9841
  62   2.0000      -2.535111       -68.9839
  63   2.0000      -2.532658       -68.9171
  64   2.0000      -2.532353       -68.9088
  65   2.0000      -2.527751       -68.7836
  66   2.0000      -2.527066       -68.7649
  67   2.0000      -2.067018       -56.2464
  68   2.0000      -2.063915       -56.1620
  69   2.0000      -2.063020       -56.1376
  70   2.0000      -2.062450       -56.1221
  71   2.0000      -2.062012       -56.1102
  72   2.0000      -2.061246       -56.0893
  73   2.0000      -1.247374       -33.9428
  74   2.0000      -1.243997       -33.8509
  75   2.0000      -1.243360       -33.8335
  76   2.0000      -1.242032       -33.7974
  77   2.0000      -1.240680       -33.7606
  78   2.0000      -1.239898       -33.7393
  79   2.0000      -1.238028       -33.6885
  80   2.0000      -1.237322       -33.6693
  81   2.0000      -1.236155       -33.6375
  82   2.0000      -1.235900       -33.6305
  83   2.0000      -1.235252       -33.6129
  84   2.0000      -1.234214       -33.5847
  85   2.0000      -1.233374       -33.5618
  86   2.0000      -1.232130       -33.5280
  87   2.0000      -1.231404       -33.5082
  88   2.0000      -1.230715       -33.4895
  89   2.0000      -1.229999       -33.4700
  90   2.0000      -1.229779       -33.4640
  91   2.0000      -1.012355       -27.5476
  92   2.0000      -1.010653       -27.5013
  93   2.0000      -1.010179       -27.4884
  94   2.0000      -1.008516       -27.4431
  95   2.0000      -1.007809       -27.4239
  96   2.0000      -1.007563       -27.4172
  97   2.0000      -1.007166       -27.4064
  98   2.0000      -1.005213       -27.3532
  99   2.0000      -1.003752       -27.3135
 100   2.0000      -1.002641       -27.2832
 101   2.0000      -1.000098       -27.2140
 102   2.0000      -0.998898       -27.1814
 103   2.0000      -0.935332       -25.4517
 104   2.0000      -0.930729       -25.3264
 105   2.0000      -0.929127       -25.2828
 106   2.0000      -0.927792       -25.2465
 107   2.0000      -0.926349       -25.2072
 108   2.0000      -0.926132       -25.2013
 109   2.0000      -0.925807       -25.1925
 110   2.0000      -0.923716       -25.1356
 111   2.0000      -0.923181       -25.1210
 112   2.0000      -0.922723       -25.1086
 113   2.0000      -0.921228       -25.0679
 114   2.0000      -0.918559       -24.9953
 115   2.0000      -0.840964       -22.8838
 116   2.0000      -0.831988       -22.6395
 117   2.0000      -0.831449       -22.6249
 118   2.0000      -0.823309       -22.4034
 119   2.0000      -0.820422       -22.3248
 120   2.0000      -0.818185       -22.2639
 121   2.0000      -0.575040       -15.6476
 122   2.0000      -0.570411       -15.5217
 123   2.0000      -0.569393       -15.4940
 124   2.0000      -0.568103       -15.4589
 125   2.0000      -0.565857       -15.3977
 126   2.0000      -0.565057       -15.3760
 127   2.0000      -0.564332       -15.3562
 128   2.0000      -0.562908       -15.3175
 129   2.0000      -0.560865       -15.2619
 130   2.0000      -0.559315       -15.2197
 131   2.0000      -0.557329       -15.1657
 132   2.0000      -0.556178       -15.1344
 133   2.0000      -0.508001       -13.8234
 134   2.0000      -0.487100       -13.2547
 135   2.0000      -0.484553       -13.1854
 136   2.0000      -0.483166       -13.1476
 137   2.0000      -0.481896       -13.1131
 138   2.0000      -0.480973       -13.0879
 139   2.0000      -0.479333       -13.0433
 140   2.0000      -0.477948       -13.0056
 141   2.0000      -0.477005       -12.9800
 142   2.0000      -0.475793       -12.9470
 143   2.0000      -0.474515       -12.9122
 144   2.0000      -0.472487       -12.8570
 145   2.0000      -0.470492       -12.8028
 146   2.0000      -0.470172       -12.7940
 147   2.0000      -0.468817       -12.7572
 148   2.0000      -0.468113       -12.7380
 149   2.0000      -0.467259       -12.7148
 150   2.0000      -0.466969       -12.7069
 151   2.0000      -0.466222       -12.6866
 152   2.0000      -0.457149       -12.4397
 153   2.0000      -0.456670       -12.4266
 154   2.0000      -0.455141       -12.3850
 155   2.0000      -0.454707       -12.3732
 156   2.0000      -0.453715       -12.3462
 157   2.0000      -0.452587       -12.3155
 158   2.0000      -0.437079       -11.8935
 159   2.0000      -0.432591       -11.7714
 160   2.0000      -0.430708       -11.7202
 161   2.0000      -0.429490       -11.6870
 162   2.0000      -0.423602       -11.5268
 163   2.0000      -0.421216       -11.4619
 164   2.0000      -0.419626       -11.4186
 165   2.0000      -0.418737       -11.3944
 166   2.0000      -0.417248       -11.3539
 167   2.0000      -0.415416       -11.3040
 168   2.0000      -0.412795       -11.2327
 169   2.0000      -0.411339       -11.1931
 170   2.0000      -0.410456       -11.1691
 171   2.0000      -0.401169       -10.9164
 172   2.0000      -0.383776       -10.4431
 173   2.0000      -0.380773       -10.3614
 174   2.0000      -0.377347       -10.2681
 175   2.0000      -0.376703       -10.2506
 176   2.0000      -0.370956       -10.0942
 177   2.0000      -0.369359       -10.0508
 178   2.0000      -0.368959       -10.0399
 179   2.0000      -0.368000       -10.0138
 180   2.0000      -0.346577        -9.4308
 181   2.0000      -0.345639        -9.4053
 182   2.0000      -0.343191        -9.3387
 183   2.0000      -0.341148        -9.2831
 184   2.0000      -0.339978        -9.2513
 185   2.0000      -0.333579        -9.0771
 186   2.0000      -0.333008        -9.0616
 187   2.0000      -0.331810        -9.0290
 188   2.0000      -0.324897        -8.8409
 189   2.0000      -0.322937        -8.7876
 190   2.0000      -0.322295        -8.7701
 191   2.0000      -0.321730        -8.7547
 192   2.0000      -0.318963        -8.6794
 193   2.0000      -0.315976        -8.5981
 194   2.0000      -0.313320        -8.5259
 195   2.0000      -0.312155        -8.4942
 196   2.0000      -0.310278        -8.4431
 197   2.0000      -0.309470        -8.4211
 198   2.0000      -0.307889        -8.3781
 199   2.0000      -0.306861        -8.3501
 200   2.0000      -0.303314        -8.2536
 201   2.0000      -0.302739        -8.2379
 202   2.0000      -0.301297        -8.1987
 203   2.0000      -0.298622        -8.1259
 204   2.0000      -0.296599        -8.0709
 205   2.0000      -0.296456        -8.0670
 206   2.0000      -0.295665        -8.0454
 207   2.0000      -0.295154        -8.0316
 208   2.0000      -0.294898        -8.0246
 209   2.0000      -0.293627        -7.9900
 210   2.0000      -0.293157        -7.9772
 211   2.0000      -0.291891        -7.9428
 212   2.0000      -0.290071        -7.8932
 213   2.0000      -0.288894        -7.8612
 214   2.0000      -0.286874        -7.8062
 215   2.0000      -0.286422        -7.7939
 216   2.0000      -0.284850        -7.7512
 217   2.0000      -0.284471        -7.7409
 218   2.0000      -0.283277        -7.7084
 219   2.0000      -0.282726        -7.6934
 220   2.0000      -0.282046        -7.6749
 221   2.0000      -0.281481        -7.6595
 222   2.0000      -0.280087        -7.6216
 223   2.0000      -0.278956        -7.5908
 224   2.0000      -0.278078        -7.5669
 225   2.0000      -0.278022        -7.5654
 226   2.0000      -0.276737        -7.5304
 227   2.0000      -0.272581        -7.4173
 228   2.0000      -0.271423        -7.3858
 229   2.0000      -0.268240        -7.2992
 230   2.0000      -0.261964        -7.1284
 231   2.0000      -0.257043        -6.9945
 232   2.0000      -0.253171        -6.8891
 233   2.0000      -0.250225        -6.8090
 234   2.0000      -0.249825        -6.7981
 235   2.0000      -0.248605        -6.7649
 236   2.0000      -0.245378        -6.6771
 237   2.0000      -0.243011        -6.6127
 238   0.0000      -0.130878        -3.5614
 239   0.0000      -0.126394        -3.4393
 240   0.0000      -0.105045        -2.8584
 241   0.0000      -0.103496        -2.8163
 242   0.0000      -0.101481        -2.7614

-------
TIMINGS
-------

Dispersion correction           -0.163289965
FINAL SINGLE POINT ENERGY     -4220.512866405573

DIPOLE MOMENT
-------------

Method             : SCF
Type of density    : Electron Density
Multiplicity       :   1
Irrep              :   0
Energy             : -4220.7537580318785331 Eh
Basis              : AO
                                X                 Y                 Z
Electronic contribution:     75.604738048    -277.879346046    -216.806392306
Nuclear contribution   :    -74.913473639     275.550588434     214.617284521
                        -----------------------------------------
Total Dipole Moment    :      0.691264408      -2.328757612      -2.189107785
                        -----------------------------------------
Magnitude (a.u.)       :      3.270038439
Magnitude (Debye)      :      8.311777164

Rotational constants in cm-1:             0.001700             0.001012             0.000990
Rotational constants in MHz :            50.963092            30.352513            29.687237

                             ****ORCA TERMINATED NORMALLY****
TOTAL RUN TIME: 0 days 2 hours 10 minutes 37 seconds 951 msec
