                         Program Version 6.1.0  -  RELEASE   -
|  1> # input to generate an atomic fitting density for Zr
|  2> # this file is used internally by ORCA
|  3> #
|  4> # atomic ground state (Mult=3): 1s2 2s2 2p6 3s2 3p6 4s2 3d10 4p6 4d2 5s2
|  5> #
|  6> ! ROHF def2-SVP def2/J Conv LeanSCF AODIIS SOSCF NoMulliken NoLoewdin NoMayer NoPrintMOs
|  7>
|  8> %output print[p_atomdensfit] 2 end
|  9>
| 10> %scf
| 11>   guess     HCore
| 12>   maxiter    1000
| 13>   maxdisk  500000
| 14>   diismaxeq     8
| 15>   soscfstart 1e-4
| 16>   lshift  0.300000
| 17>   ignoreconv true
| 18>
| 19>   hftyp        rohf
| 20>   rohf_case    sahf
| 21>   rohf_numop   3
| 22>   rohf_norb[1] 5,1
| 23>   rohf_nel[1]  2,2
| 24>
| 25> end
| 26>
| 27> %basis
| 28>   NewECP 40
| 29>     N_core 28
| 30>     lmax f
| 31>     s 4
| 32>       1       8.2000000000    150.2675911000  2
| 33>       2       4.0897278000     18.9762165000  2
| 34>       3       7.5400000000     21.0937760000  2
| 35>       4       3.7700000000      3.0806943000  2
| 36>     p 4
| 37>       1       7.1100000000     99.6221237000  2
| 38>       2       3.5967980000     14.1687333000  2
| 39>       3       7.5400000000     21.0937760000  2
| 40>       4       3.7700000000      3.0806943000  2
| 41>     d 4
| 42>       1       5.3500000000     35.0451235000  2
| 43>       2       2.4918215000      6.1112595000  2
| 44>       3       7.5400000000     21.0937760000  2
| 45>       4       3.7700000000      3.0806943000  2
| 46>     f 2
| 47>       1       7.5400000000    -21.0937760000  2
| 48>       2       3.7700000000     -3.0806943000  2
| 49>   end
| 50>   NewGTO 40
| 51>     s 3
| 52>      1       5.8737890000      0.9717450200
| 53>      2       4.2872700000     -1.7058213661
| 54>      3       1.4641370000     -0.2454443851
| 55>     s 1
| 56>      1       0.8372768234      1.0000000000
| 57>     s 1
| 58>      1       0.3684980651      1.0000000000
| 59>     s 1
| 60>      1       0.0778068591      1.0000000000
| 61>     s 1
| 62>      1       0.0302730883      1.0000000000
| 63>     p 4
| 64>      1       2.8742240000     -0.4817495790
| 65>      2       2.1199010000      0.4740935833
| 66>      3       0.7884582111      0.6081158782
| 67>      4       0.3633257985      0.3701379789
| 68>     p 1
| 69>      1       0.1495176202      1.0000000000
| 70>     p 1
| 71>      1       0.0300000000      1.0000000000
| 72>     d 3
| 73>      1       4.2898623878     -0.0212335809
| 74>      2       1.3615557498      0.3423771261
| 75>      3       0.5693755069      0.7312273940
| 76>     d 1
| 77>      1       0.2267494868      1.0000000000
| 78>     d 1
| 79>      1       0.0830110316      1.0000000000
| 80>   end
| 81>   NewAuxGTO 40
| 82>     S 1
| 83>      1 1310.72 1.0
| 84>     S 1
| 85>      1  655.36 1.0
| 86>     S 1
| 87>      1  327.68 1.0
| 88>     S 1
| 89>      1  163.84 1.0
| 90>     S 1
| 91>      1   81.82 1.0
| 92>     S 1
| 93>      1   40.96 1.0
| 94>     S 1
| 95>      1   20.48 1.0
| 96>     S 1
| 97>      1   10.24 1.0
| 98>     S 1
| 99>      1    5.12 1.0
|100>     S 1
|101>      1    2.56 1.0
|102>     S 1
|103>      1    1.28 1.0
|104>     S 1
|105>      1    0.64 1.0
|106>     S 1
|107>      1    0.32 1.0
|108>     S 1
|109>      1    0.16 1.0
|110>     S 1
|111>      1    0.08 1.0
|112>     S 1
|113>      1    0.04 1.0
|114>     S 1
|115>      1    0.02 1.0
|116>     S 1
|117>      1    0.01 1.0
|118>   end
|119> end
|120>
|121> * xyz 0 3
|122> 40  0.0 0.0 0.0
|123> *
|124>
|125>
|126>                          ****END OF INPUT****

CARTESIAN COORDINATES (ANGSTROEM)
---------------------------------
  Zr     0.000000    0.000000    0.000000

 Total Charge           Charge          ....    0
 Multiplicity           Mult            ....    3
 Number of Electrons    NEL             ....   12
 Basis Dimension        Dim             ....   29

ORBITAL ENERGIES
----------------

  NO   OCC          E(Eh)            E(eV)
   0   2.0000      -2.828036       -76.9548
   1   2.0000      -1.788516       -48.6680
   2   2.0000      -1.788515       -48.6680
   3   2.0000      -1.777461       -48.3672
   4   0.4000      -0.420001       -11.4288
   5   0.4000      -0.483259       -13.1501
   6   0.4000      -0.461426       -12.5561
   7   0.4000      -0.226405        -6.1608
   8   0.4000      -0.226397        -6.1606
   9   2.0000      -0.160857        -4.3771
  10   0.0000      -0.115741        -3.1495
  11   0.0000      -0.105117        -2.8604
  12   0.0000      -0.105116        -2.8603
  13   0.0000       0.078985         2.1493
  14   0.0000       0.197037         5.3616

FINAL SINGLE POINT ENERGY       -46.017320001694

DIPOLE MOMENT
-------------

Method             : SCF
Type of density    : Electron Density
Multiplicity       :   3
Irrep              :   0
Energy             :   -46.0173200016940029 Eh
Basis              : AO
                                X                 Y                 Z
Electronic contribution:     -0.000000001      -0.000000000       0.000000001
Nuclear contribution   :      0.000000000       0.000000000       0.000000000
                        -----------------------------------------
Total Dipole Moment    :     -0.000000001      -0.000000000       0.000000001
                        -----------------------------------------
Magnitude (a.u.)       :      0.000000001
Magnitude (Debye)      :      0.000000003

Rotational constants in cm-1:             0.000000             0.000000             0.000000
Rotational constants in MHz :             0.000000             0.000000             0.000000

                             ****ORCA TERMINATED NORMALLY****
TOTAL RUN TIME: 0 days 0 hours 0 minutes 1 seconds 359 msec
