                         Program Version 6.1.0  -  RELEASE   -
|  1> # Geometry optimization for (AlH3)n cluster
|  2>
|  3> %pal nprocs 24  end
|  4>
|  5> %geom MaxIter 500 end
|  6>
|  7> %cpcm
|  8> 	epsilon 1.95778548766667
|  9> end
| 10>
| 11> %elprop Polar 1 end # invoke raman
| 12>
| 13> ! PBEh-3c
| 14> ! RKS	# closed shell for AlH3
| 15> ! Freq 	# Frequency analysis to check the stabiltity of the structures
| 16>
| 17>
| 18> ! NoPop # population analysis not necessary
| 19>
| 20> ! DEFGRID3
| 21> ! ExtremeSCF
| 22> ! VeryTightOpt
| 23>
| 24>
| 25> ! SmallPrint
| 26>
| 27>
| 28> * xyzFile 0 1 start.xyz # only maingroup elements H and Al so there should be no net spin
| 29>
| 30>                          ****END OF INPUT****
 Total Charge           Charge          ....    0
 Multiplicity           Mult            ....    1
 Number of Electrons    NEL             ....   32
Dispersion correction           -0.002141216
FINAL SINGLE POINT ENERGY      -487.787882309066
Dispersion correction             ... done (  0.1 sec)
Dispersion correction           -0.002145174
FINAL SINGLE POINT ENERGY      -487.788112401374
Dispersion correction             ... done (  0.1 sec)
Dispersion correction           -0.002154174
FINAL SINGLE POINT ENERGY      -487.788321199456
Dispersion correction             ... done (  0.1 sec)
FINAL SINGLE POINT ENERGY      -487.788326074866
FINAL SINGLE POINT ENERGY      -487.788332059682
FINAL SINGLE POINT ENERGY      -487.788332258360
FINAL SINGLE POINT ENERGY      -487.788332799338
FINAL SINGLE POINT ENERGY      -487.788332816230
FINAL SINGLE POINT ENERGY      -487.788332938900
Dispersion correction             ... done (  0.1 sec)
Dispersion correction           -0.002155337
FINAL SINGLE POINT ENERGY      -487.788332992432
Dispersion correction             ... done (  0.1 sec)
Dispersion correction           -0.002155297
FINAL SINGLE POINT ENERGY      -487.788333016841
Dispersion correction             ... done (  0.1 sec)
                    ***********************HURRAY********************

CARTESIAN COORDINATES (ANGSTROEM)
---------------------------------
  Al     0.000041   -0.003222    2.332174
  Al    -0.000350   -0.002675   -0.262971
  H      1.143700   -0.054132    1.034420
  H     -0.063472   -1.416773   -0.946906
  H     -1.143998    0.048495    1.034783
  H      0.063154    1.410695    3.016479
  H     -0.062882   -1.417602    3.015541
  H      0.062567    1.411524   -0.946709

 Multiplicity           Mult            ....    1
 Number of Electrons    NEL             ....   32
 Basis Dimension        Dim             ....   48

ORBITAL ENERGIES
----------------

  NO   OCC          E(Eh)            E(eV)
   0   2.0000     -56.609520     -1540.4234
   1   2.0000     -56.609463     -1540.4218
   2   2.0000      -4.352443      -118.4360
   3   2.0000      -4.352382      -118.4343
   4   2.0000      -2.843745       -77.3822
   5   2.0000      -2.843630       -77.3791
   6   2.0000      -2.841325       -77.3164
   7   2.0000      -2.840611       -77.2969
   8   2.0000      -2.837348       -77.2082
   9   2.0000      -2.837304       -77.2070
  10   2.0000      -0.575628       -15.6636
  11   2.0000      -0.440012       -11.9733
  12   2.0000      -0.396446       -10.7878
  13   2.0000      -0.376523       -10.2457
  14   2.0000      -0.367437        -9.9985
  15   2.0000      -0.351850        -9.5743
  16   0.0000      -0.016118        -0.4386
  17   0.0000       0.053390         1.4528
  18   0.0000       0.056682         1.5424
  19   0.0000       0.057547         1.5659
  20   0.0000       0.064675         1.7599

-------
TIMINGS
-------

Dispersion correction           -0.002155297
FINAL SINGLE POINT ENERGY      -487.788333020977

DIPOLE MOMENT
-------------

Method             : SCF
Type of density    : Electron Density
Multiplicity       :   1
Irrep              :   0
Energy             :  -487.7995550371816762 Eh
Basis              : AO
                                X                 Y                 Z
Electronic contribution:      0.000004578       0.000215934      -0.000000044
Nuclear contribution   :     -0.000001520      -0.000088794       0.000000036
                        -----------------------------------------
Total Dipole Moment    :      0.000003058       0.000127140      -0.000000008
                        -----------------------------------------
Magnitude (a.u.)       :      0.000127177
Magnitude (Debye)      :      0.000323258

VIBRATIONAL FREQUENCIES
-----------------------

Scaling factor for frequencies =  1.000000000  (already applied!)

     0:       0.00 cm**-1
     1:       0.00 cm**-1
     2:       0.00 cm**-1
     3:       0.00 cm**-1
     4:       0.00 cm**-1
     5:       0.00 cm**-1
     6:     202.37 cm**-1
     7:     380.34 cm**-1
     8:     420.55 cm**-1
     9:     463.66 cm**-1
    10:     473.89 cm**-1
    11:     618.51 cm**-1
    12:     686.03 cm**-1
    13:     736.70 cm**-1
    14:     759.52 cm**-1
    15:     846.17 cm**-1
    16:    1310.87 cm**-1
    17:    1432.65 cm**-1
    18:    1489.20 cm**-1
    19:    1568.56 cm**-1
    20:    2002.87 cm**-1
    21:    2010.09 cm**-1
    22:    2015.90 cm**-1
    23:    2020.92 cm**-1

IR SPECTRUM
-----------

 Mode   freq       eps      Int      T**2         TX        TY        TZ
       cm**-1   L/(mol*cm) km/mol    a.u.
----------------------------------------------------------------------------
  6:    202.37   0.004423   22.35  0.006821  (-0.002618 -0.082549 -0.000015)
  7:    380.34   0.000000    0.00  0.000000  (-0.000001 -0.000017 -0.000000)
  8:    420.55   0.000000    0.00  0.000000  (-0.000001 -0.000000 -0.000094)
  9:    463.66   0.000000    0.00  0.000000  (-0.000000 -0.000000 -0.000010)
 10:    473.89   0.000000    0.00  0.000000  ( 0.000000  0.000000  0.000000)
 11:    618.51   0.076699  387.60  0.038698  (-0.196516  0.008886  0.000026)
 12:    686.03   0.169193  855.03  0.076964  (-0.000038  0.000059 -0.277423)
 13:    736.70   0.000000    0.00  0.000000  (-0.000001 -0.000044  0.000000)
 14:    759.52   0.000000    0.00  0.000000  (-0.000065  0.000021  0.000001)
 15:    846.17   0.068892  348.15  0.025407  ( 0.008230  0.159184  0.000034)
 16:   1310.87   0.099544  503.06  0.023697  (-0.153773  0.007157  0.000025)
 17:   1432.65   0.000000    0.00  0.000000  (-0.000000  0.000000 -0.000007)
 18:   1489.20   0.282679  1428.55  0.059236  (-0.000038  0.000052 -0.243384)
 19:   1568.56   0.000000    0.00  0.000000  ( 0.000001 -0.000010 -0.000000)
 20:   2002.87   0.027016  136.53  0.004209  ( 0.000010 -0.000009  0.064879)
 21:   2010.09   0.000000    0.00  0.000000  ( 0.000002  0.000040  0.000000)
 22:   2015.90   0.000000    0.00  0.000000  (-0.000000  0.000001  0.000034)
 23:   2020.92   0.109507  553.41  0.016910  (-0.005828 -0.129907 -0.000024)

--------------------------
THERMOCHEMISTRY AT 298.15K
--------------------------

Temperature         ...   298.15 K
Pressure            ...     1.00 atm
Total Mass          ...    60.01 AMU
Quasi RRHO          ...     True
Cut-Off Frequency   ...     1.00 cm^-1

Throughout the following assumptions are being made:
  (1) The electronic state is orbitally nondegenerate
  (2) There are no thermally accessible electronically excited states
  (3) Hindered rotations indicated by low frequency modes are not
      treated as such but are treated as vibrations and this may
      cause some error
  (4) All equations used are the standard statistical mechanics
      equations for an ideal gas
  (5) All vibrations are strictly harmonic

freq.     202.37  E(vib)   ...       0.35
freq.     380.34  E(vib)   ...       0.21
freq.     420.55  E(vib)   ...       0.18
freq.     463.66  E(vib)   ...       0.16
freq.     473.89  E(vib)   ...       0.15
freq.     618.51  E(vib)   ...       0.09
freq.     686.03  E(vib)   ...       0.07
freq.     736.70  E(vib)   ...       0.06
freq.     759.52  E(vib)   ...       0.06
freq.     846.17  E(vib)   ...       0.04
freq.    1310.87  E(vib)   ...       0.01
freq.    1432.65  E(vib)   ...       0.00
freq.    1489.20  E(vib)   ...       0.00
freq.    1568.56  E(vib)   ...       0.00
freq.    2002.87  E(vib)   ...       0.00
freq.    2010.09  E(vib)   ...       0.00
freq.    2015.90  E(vib)   ...       0.00
freq.    2020.92  E(vib)   ...       0.00

------------
INNER ENERGY
------------

The inner energy is: U= E(el) + E(ZPE) + E(vib) + E(rot) + E(trans)
    E(el)   - is the total energy from the electronic structure calculation
              = E(kin-el) + E(nuc-el) + E(el-el) + E(nuc-nuc)
    E(ZPE)  - the the zero temperature vibrational energy from the frequency calculation
    E(vib)  - the the finite temperature correction to E(ZPE) due to population
              of excited vibrational states
    E(rot)  - is the rotational thermal energy
    E(trans)- is the translational thermal energy

Summary of contributions to the inner energy U:
Electronic energy                ...   -487.78833302 Eh
Zero point energy                ...      0.04428482 Eh      27.79 kcal/mol
Thermal vibrational correction   ...      0.00222507 Eh       1.40 kcal/mol
Thermal rotational correction    ...      0.00141627 Eh       0.89 kcal/mol
Thermal translational correction ...      0.00141627 Eh       0.89 kcal/mol
-----------------------------------------------------------------------
Total thermal energy                   -487.73899059 Eh

Summary of corrections to the electronic energy:
(perhaps to be used in another calculation)
Total thermal correction                  0.00505761 Eh       3.17 kcal/mol
Non-thermal (ZPE) correction              0.04428482 Eh      27.79 kcal/mol
-----------------------------------------------------------------------
Total correction                          0.04934243 Eh      30.96 kcal/mol

--------
ENTHALPY
--------

The enthalpy is H = U + kB*T
                kB is Boltzmann's constant
Total thermal energy              ...   -487.73899059 Eh
Thermal Enthalpy correction       ...      0.00094421 Eh       0.59 kcal/mol
-----------------------------------------------------------------------
Total Enthalpy                    ...   -487.73804638 Eh

Note: Rotational entropy computed according to Herzberg
Infrared and Raman Spectra, Chapter V,1, Van Nostrand Reinhold, 1945
Point Group:  Cs, Symmetry Number:   1
Rotational constants in cm-1:     1.572205     0.154188     0.146885

Vibrational entropy computed according to the QRRHO of S. Grimme
Chem.Eur.J. 2012 18 9955 using a reference frequency of 100.0 cm-1

-------
ENTROPY
-------

The entropy contributions are T*S = T*(S(el)+S(vib)+S(rot)+S(trans))
     S(el)   - electronic entropy
     S(vib)  - vibrational entropy
     S(rot)  - rotational entropy
     S(trans)- translational entropy
The entropies will be listed as multiplied by the temperature to get
units of energy

Electronic entropy                ...      0.00000000 Eh      0.00 kcal/mol
Vibrational entropy               ...      0.00333692 Eh      2.09 kcal/mol
Rotational entropy                ...      0.01108533 Eh      6.96 kcal/mol
Translational entropy             ...      0.01814806 Eh     11.39 kcal/mol
-----------------------------------------------------------------------
Final entropy term                ...      0.03257030 Eh     20.44 kcal/mol

In case the symmetry of your molecule has not been determined correctly
or in case you have a reason to use a different symmetry number we print
out the resulting rotational entropy values for sn=1,12:

 non-linear molecules -----------------------------------
|  sn= 1 | S(rot)=       0.01108533 Eh      6.96 kcal/mol|
|  sn= 2 | S(rot)=       0.01043087 Eh      6.55 kcal/mol|
|  sn= 3 | S(rot)=       0.01004804 Eh      6.31 kcal/mol|
|  sn= 4 | S(rot)=       0.00977642 Eh      6.13 kcal/mol|
|  sn= 5 | S(rot)=       0.00956573 Eh      6.00 kcal/mol|
|  sn= 6 | S(rot)=       0.00939358 Eh      5.89 kcal/mol|
|  sn= 7 | S(rot)=       0.00924804 Eh      5.80 kcal/mol|
|  sn= 8 | S(rot)=       0.00912196 Eh      5.72 kcal/mol|
|  sn= 9 | S(rot)=       0.00901075 Eh      5.65 kcal/mol|
|  sn=10 | S(rot)=       0.00891127 Eh      5.59 kcal/mol|
|  sn=11 | S(rot)=       0.00882128 Eh      5.54 kcal/mol|
|  sn=12 | S(rot)=       0.00873913 Eh      5.48 kcal/mol|
 linear molecules ---------------------------------------
|  Dinfh | S(rot)=       0.00713685 Eh      4.48 kcal/mol|
|  Cinfv | S(rot)=       0.00779130 Eh      4.89 kcal/mol|
 --------------------------------------------------------

-------------------
GIBBS FREE ENERGY
-------------------

The Gibbs free energy is G = H - T*S

Total enthalpy                    ...   -487.73804638 Eh
Total entropy correction          ...     -0.03257030 Eh    -20.44 kcal/mol
-----------------------------------------------------------------------
Final Gibbs free energy         ...   -487.77061669 Eh

For completeness - the Gibbs free energy minus the electronic energy
G-E(el)                           ...      0.01771633 Eh     11.12 kcal/mol

                             ****ORCA TERMINATED NORMALLY****
TOTAL RUN TIME: 0 days 0 hours 3 minutes 2 seconds 339 msec
