                         Program Version 6.1.0  -  RELEASE   -
|  1> # Geometry optimization for (AlH3)n cluster
|  2>
|  3> %pal nprocs 64 end
|  4>
|  5> %geom MaxIter 500 end
|  6>
|  7>
|  8> ! PBE 	# functional used for the MOF calculations later (non-expensive)
|  9> ! RKS	# closed shell for AlH3
| 10> ! D3BJ  # better geometries at low cost
| 11> ! pc-3 	# proven basiset from earlier work not to large
| 12> ! Freq 	# Frequency analysis to check the stabiltity of the structures
| 13>
| 14> ! NoPop # population analysis not necessary
| 15>
| 16> ! RI 		# speed up calculation
| 17> ! AutoAux # no auxiliary basis set for pc implemented
| 18> ! DEFGRID3
| 19> ! TightSCF #
| 20> ! TightOpt
| 21>
| 22> ! SmallPrint
| 23>
| 24>
| 25> * xyzFile 0 1 start.xyz # only maingroup elements H and Al so there should be no net spin
| 26>
| 27>                          ****END OF INPUT****
 Total Charge           Charge          ....    0
 Multiplicity           Mult            ....    1
 Number of Electrons    NEL             ....   80
Dispersion correction           -0.020691945
FINAL SINGLE POINT ENERGY     -1220.496377805100
Dispersion correction             ... done (  0.0 sec)
Dispersion correction           -0.020692795
FINAL SINGLE POINT ENERGY     -1220.496379344152
Dispersion correction             ... done (  0.0 sec)
Dispersion correction           -0.020697064
FINAL SINGLE POINT ENERGY     -1220.496382604432
Dispersion correction             ... done (  0.0 sec)
Dispersion correction           -0.020698003
FINAL SINGLE POINT ENERGY     -1220.496382966025
Dispersion correction             ... done (  0.0 sec)
Dispersion correction           -0.020702786
FINAL SINGLE POINT ENERGY     -1220.496384137188
Dispersion correction             ... done (  0.0 sec)
                    ***********************HURRAY********************

CARTESIAN COORDINATES (ANGSTROEM)
---------------------------------
  Al    -1.199633    1.383165    3.655796
  H     -2.376501    2.441807    3.697352
  H      1.674121   -2.136133   -0.330853
  H      0.336235   -0.407301    3.683934
  Al     1.161380    2.500909    3.915630
  H      2.431724    1.557737    4.005959
  H      1.096539    4.086016    3.930516
  H     -1.766294    0.134022    4.835012
  Al    -0.961110   -1.217219    1.873740
  H     -1.987746   -1.782323    0.808961
  H     -0.072901    1.900414    4.950771
  H      0.333711   -0.308564    1.089481
  Al    -0.737680   -1.176485    4.654877
  H     -1.569599   -1.938988    3.416245
  H     -0.362514   -2.017351    5.934466
  H      2.680526   -1.133842    2.152149
  Al     1.536833   -1.549173    1.136731
  H     -1.633977    0.284854    2.394884
  H      0.128412    1.951746    2.641710
  H      0.333651   -2.453261    1.967979

 Multiplicity           Mult            ....    1
 Number of Electrons    NEL             ....   80
 Basis Dimension        Dim             ....  830

ORBITAL ENERGIES
----------------

  NO   OCC          E(Eh)            E(eV)
   0   2.0000     -55.386725     -1507.1494
   1   2.0000     -55.386608     -1507.1462
   2   2.0000     -55.379043     -1506.9404
   3   2.0000     -55.351115     -1506.1804
   4   2.0000     -55.351046     -1506.1785
   5   2.0000      -3.955784      -107.6423
   6   2.0000      -3.955649      -107.6387
   7   2.0000      -3.953415      -107.5779
   8   2.0000      -3.925389      -106.8153
   9   2.0000      -3.925312      -106.8132
  10   2.0000      -2.558222       -69.6128
  11   2.0000      -2.558085       -69.6090
  12   2.0000      -2.557392       -69.5902
  13   2.0000      -2.557256       -69.5865
  14   2.0000      -2.556248       -69.5590
  15   2.0000      -2.555520       -69.5392
  16   2.0000      -2.555255       -69.5320
  17   2.0000      -2.555113       -69.5282
  18   2.0000      -2.551618       -69.4330
  19   2.0000      -2.529517       -68.8317
  20   2.0000      -2.529443       -68.8296
  21   2.0000      -2.526928       -68.7612
  22   2.0000      -2.526849       -68.7591
  23   2.0000      -2.522844       -68.6501
  24   2.0000      -2.522767       -68.6480
  25   2.0000      -0.519819       -14.1450
  26   2.0000      -0.464312       -12.6346
  27   2.0000      -0.436597       -11.8804
  28   2.0000      -0.384920       -10.4742
  29   2.0000      -0.373945       -10.1756
  30   2.0000      -0.340163        -9.2563
  31   2.0000      -0.319460        -8.6929
  32   2.0000      -0.318288        -8.6610
  33   2.0000      -0.313677        -8.5356
  34   2.0000      -0.295689        -8.0461
  35   2.0000      -0.289942        -7.8897
  36   2.0000      -0.282261        -7.6807
  37   2.0000      -0.271674        -7.3926
  38   2.0000      -0.267168        -7.2700
  39   2.0000      -0.262514        -7.1434
  40   0.0000      -0.073771        -2.0074
  41   0.0000      -0.070955        -1.9308
  42   0.0000      -0.055524        -1.5109
  43   0.0000      -0.050051        -1.3620
  44   0.0000      -0.045116        -1.2277

-------
TIMINGS
-------

Dispersion correction           -0.020703783
FINAL SINGLE POINT ENERGY     -1220.496384371750

DIPOLE MOMENT
-------------

Method             : SCF
Type of density    : Electron Density
Multiplicity       :   1
Irrep              :   0
Energy             : -1220.4756805883262132 Eh
Basis              : AO
                                X                 Y                 Z
Electronic contribution:     -0.071909290      -0.718371718       1.023088814
Nuclear contribution   :     -0.134583348       0.310487150      -0.464757437
                        -----------------------------------------
Total Dipole Moment    :     -0.206492639      -0.407884567       0.558331376
                        -----------------------------------------
Magnitude (a.u.)       :      0.721625218
Magnitude (Debye)      :      1.834225537

VIBRATIONAL FREQUENCIES
-----------------------

Scaling factor for frequencies =  1.000000000  (already applied!)

     0:       0.00 cm**-1
     1:       0.00 cm**-1
     2:       0.00 cm**-1
     3:       0.00 cm**-1
     4:       0.00 cm**-1
     5:       0.00 cm**-1
     6:      52.10 cm**-1
     7:      56.69 cm**-1
     8:      84.23 cm**-1
     9:      96.69 cm**-1
    10:     171.08 cm**-1
    11:     172.41 cm**-1
    12:     217.68 cm**-1
    13:     221.83 cm**-1
    14:     276.75 cm**-1
    15:     301.75 cm**-1
    16:     313.96 cm**-1
    17:     370.04 cm**-1
    18:     372.63 cm**-1
    19:     398.64 cm**-1
    20:     427.10 cm**-1
    21:     451.07 cm**-1
    22:     461.03 cm**-1
    23:     508.03 cm**-1
    24:     514.55 cm**-1
    25:     527.57 cm**-1
    26:     530.16 cm**-1
    27:     536.40 cm**-1
    28:     629.15 cm**-1
    29:     673.77 cm**-1
    30:     697.43 cm**-1
    31:     714.47 cm**-1
    32:     718.20 cm**-1
    33:     746.25 cm**-1
    34:     763.40 cm**-1
    35:     800.19 cm**-1
    36:     827.40 cm**-1
    37:     828.07 cm**-1
    38:    1034.95 cm**-1
    39:    1124.48 cm**-1
    40:    1170.58 cm**-1
    41:    1178.43 cm**-1
    42:    1214.90 cm**-1
    43:    1356.19 cm**-1
    44:    1387.67 cm**-1
    45:    1409.01 cm**-1
    46:    1434.57 cm**-1
    47:    1529.51 cm**-1
    48:    1540.89 cm**-1
    49:    1599.21 cm**-1
    50:    1631.33 cm**-1
    51:    1734.11 cm**-1
    52:    1734.51 cm**-1
    53:    1896.54 cm**-1
    54:    1897.45 cm**-1
    55:    1908.44 cm**-1
    56:    1909.28 cm**-1
    57:    1913.95 cm**-1
    58:    1918.88 cm**-1
    59:    1942.94 cm**-1

IR SPECTRUM
-----------

 Mode   freq       eps      Int      T**2         TX        TY        TZ
       cm**-1   L/(mol*cm) km/mol    a.u.
----------------------------------------------------------------------------
  6:     52.10   0.000091    0.46  0.000542  ( 0.011401  0.012420 -0.016068)
  7:     56.69   0.000327    1.65  0.001802  (-0.003393  0.034857  0.023982)
  8:     84.23   0.001392    7.03  0.005157  ( 0.005731 -0.059367 -0.039997)
  9:     96.69   0.000074    0.37  0.000239  (-0.010234  0.004193 -0.010816)
 10:    171.08   0.003147   15.90  0.005740  ( 0.006119 -0.065147 -0.038195)
 11:    172.41   0.001687    8.53  0.003053  ( 0.004104 -0.024314  0.049451)
 12:    217.68   0.001143    5.77  0.001638  (-0.000161 -0.026353  0.030719)
 13:    221.83   0.000486    2.45  0.000683  ( 0.001882 -0.017648 -0.019188)
 14:    276.75   0.000138    0.70  0.000155  (-0.010409 -0.003998  0.005574)
 15:    301.75   0.000735    3.72  0.000761  (-0.001953  0.022827  0.015351)
 16:    313.96   0.000065    0.33  0.000065  (-0.007367 -0.002122  0.002421)
 17:    370.04   0.002234   11.29  0.001884  ( 0.032250  0.018165 -0.022665)
 18:    372.63   0.001111    5.62  0.000931  ( 0.002221 -0.025247 -0.016980)
 19:    398.64   0.000423    2.14  0.000331  (-0.018089 -0.000240 -0.001887)
 20:    427.10   0.000152    0.77  0.000111  ( 0.000755 -0.008559 -0.006104)
 21:    451.07   0.000025    0.13  0.000017  ( 0.000582 -0.003744 -0.001721)
 22:    461.03   0.001264    6.39  0.000856  (-0.010862  0.014574 -0.022923)
 23:    508.03   0.003171   16.02  0.001948  ( 0.000860 -0.037934 -0.022539)
 24:    514.55   0.015170   76.66  0.009200  ( 0.065904  0.039933 -0.057116)
 25:    527.57   0.009399   47.50  0.005559  (-0.007799  0.064617  0.036375)
 26:    530.16   0.003743   18.92  0.002203  (-0.028241  0.008047 -0.036622)
 27:    536.40   0.012871   65.04  0.007488  (-0.006856  0.071839  0.047748)
 28:    629.15   0.041492  209.68  0.020581  (-0.047940 -0.079256  0.109548)
 29:    673.77   0.104623  528.72  0.048458  (-0.016954  0.181059  0.124048)
 30:    697.43   0.089475  452.17  0.040035  (-0.190869 -0.045236  0.039471)
 31:    714.47   0.003806   19.24  0.001663  (-0.027679  0.019265 -0.022919)
 32:    718.20   0.008956   45.26  0.003892  (-0.001348  0.049080  0.038484)
 33:    746.25   0.083566  422.31  0.034945  ( 0.014895 -0.153867 -0.105109)
 34:    763.40   0.043082  217.72  0.017611  (-0.080328  0.054453 -0.090517)
 35:    800.19   0.017982   90.87  0.007013  (-0.018564 -0.047401  0.066493)
 36:    827.40   0.001033    5.22  0.000390  ( 0.019160 -0.004082 -0.002402)
 37:    828.07   0.031115  157.24  0.011726  (-0.107733 -0.010859 -0.001194)
 38:   1034.95   0.014459   73.07  0.004360  (-0.034105  0.029231 -0.048397)
 39:   1124.48   0.008462   42.76  0.002348  ( 0.004433 -0.039788 -0.027305)
 40:   1170.58   0.021592  109.12  0.005756  (-0.074800  0.001555 -0.012597)
 41:   1178.43   0.019971  100.93  0.005289  (-0.003484  0.060566  0.040102)
 42:   1214.90   0.114731  579.80  0.029470  (-0.053469 -0.095287  0.132408)
 43:   1356.19   0.087929  444.36  0.020233  ( 0.011944 -0.116641 -0.080530)
 44:   1387.67   0.128313  648.44  0.028855  ( 0.155662  0.048294 -0.047880)
 45:   1409.01   0.012855   64.97  0.002847  ( 0.002027 -0.043562 -0.030747)
 46:   1434.57   0.021569  109.00  0.004692  (-0.045940  0.026879 -0.043116)
 47:   1529.51   0.044296  223.86  0.009038  (-0.002380  0.079677  0.051804)
 48:   1540.89   0.079383  401.17  0.016077  ( 0.115341  0.033163 -0.040907)
 49:   1599.21   0.009343   47.22  0.001823  ( 0.004445 -0.035243 -0.023694)
 50:   1631.33   0.046911  237.07  0.008974  ( 0.077905 -0.025233  0.047623)
 51:   1734.11   0.128894  651.38  0.023195  ( 0.013236 -0.116776 -0.096869)
 52:   1734.51   0.037601  190.02  0.006765  (-0.009310 -0.066324  0.047743)
 53:   1896.54   0.008185   41.36  0.001347  (-0.007668  0.028358  0.021994)
 54:   1897.45   0.019913  100.63  0.003275  (-0.053307 -0.017025  0.011984)
 55:   1908.44   0.012346   62.39  0.002019  (-0.038041  0.018555 -0.015078)
 56:   1909.28   0.004969   25.11  0.000812  (-0.010987 -0.016724 -0.020292)
 57:   1913.95   0.046044  232.69  0.007507  (-0.005299  0.070941  0.049464)
 58:   1918.88   0.038501  194.57  0.006261  ( 0.057593 -0.027620  0.046707)
 59:   1942.94   0.018731   94.66  0.003009  (-0.005386  0.030541 -0.045241)

--------------------------
THERMOCHEMISTRY AT 298.15K
--------------------------

Temperature         ...   298.15 K
Pressure            ...     1.00 atm
Total Mass          ...   150.03 AMU
Quasi RRHO          ...     True
Cut-Off Frequency   ...     1.00 cm^-1

Throughout the following assumptions are being made:
  (1) The electronic state is orbitally nondegenerate
  (2) There are no thermally accessible electronically excited states
  (3) Hindered rotations indicated by low frequency modes are not
      treated as such but are treated as vibrations and this may
      cause some error
  (4) All equations used are the standard statistical mechanics
      equations for an ideal gas
  (5) All vibrations are strictly harmonic

freq.      52.10  E(vib)   ...       0.52
freq.      56.69  E(vib)   ...       0.52
freq.      84.23  E(vib)   ...       0.48
freq.      96.69  E(vib)   ...       0.46
freq.     171.08  E(vib)   ...       0.38
freq.     172.41  E(vib)   ...       0.38
freq.     217.68  E(vib)   ...       0.33
freq.     221.83  E(vib)   ...       0.33
freq.     276.75  E(vib)   ...       0.28
freq.     301.75  E(vib)   ...       0.26
freq.     313.96  E(vib)   ...       0.25
freq.     370.04  E(vib)   ...       0.21
freq.     372.63  E(vib)   ...       0.21
freq.     398.64  E(vib)   ...       0.19
freq.     427.10  E(vib)   ...       0.18
freq.     451.07  E(vib)   ...       0.16
freq.     461.03  E(vib)   ...       0.16
freq.     508.03  E(vib)   ...       0.14
freq.     514.55  E(vib)   ...       0.13
freq.     527.57  E(vib)   ...       0.13
freq.     530.16  E(vib)   ...       0.13
freq.     536.40  E(vib)   ...       0.12
freq.     629.15  E(vib)   ...       0.09
freq.     673.77  E(vib)   ...       0.08
freq.     697.43  E(vib)   ...       0.07
freq.     714.47  E(vib)   ...       0.07
freq.     718.20  E(vib)   ...       0.07
freq.     746.25  E(vib)   ...       0.06
freq.     763.40  E(vib)   ...       0.06
freq.     800.19  E(vib)   ...       0.05
freq.     827.40  E(vib)   ...       0.04
freq.     828.07  E(vib)   ...       0.04
freq.    1034.95  E(vib)   ...       0.02
freq.    1124.48  E(vib)   ...       0.01
freq.    1170.58  E(vib)   ...       0.01
freq.    1178.43  E(vib)   ...       0.01
freq.    1214.90  E(vib)   ...       0.01
freq.    1356.19  E(vib)   ...       0.01
freq.    1387.67  E(vib)   ...       0.00
freq.    1409.01  E(vib)   ...       0.00
freq.    1434.57  E(vib)   ...       0.00
freq.    1529.51  E(vib)   ...       0.00
freq.    1540.89  E(vib)   ...       0.00
freq.    1599.21  E(vib)   ...       0.00
freq.    1631.33  E(vib)   ...       0.00
freq.    1734.11  E(vib)   ...       0.00
freq.    1734.51  E(vib)   ...       0.00
freq.    1896.54  E(vib)   ...       0.00
freq.    1897.45  E(vib)   ...       0.00
freq.    1908.44  E(vib)   ...       0.00
freq.    1909.28  E(vib)   ...       0.00
freq.    1913.95  E(vib)   ...       0.00
freq.    1918.88  E(vib)   ...       0.00
freq.    1942.94  E(vib)   ...       0.00

------------
INNER ENERGY
------------

The inner energy is: U= E(el) + E(ZPE) + E(vib) + E(rot) + E(trans)
    E(el)   - is the total energy from the electronic structure calculation
              = E(kin-el) + E(nuc-el) + E(el-el) + E(nuc-nuc)
    E(ZPE)  - the the zero temperature vibrational energy from the frequency calculation
    E(vib)  - the the finite temperature correction to E(ZPE) due to population
              of excited vibrational states
    E(rot)  - is the rotational thermal energy
    E(trans)- is the translational thermal energy

Summary of contributions to the inner energy U:
Electronic energy                ...  -1220.49638437 Eh
Zero point energy                ...      0.11146739 Eh      69.95 kcal/mol
Thermal vibrational correction   ...      0.01069066 Eh       6.71 kcal/mol
Thermal rotational correction    ...      0.00141627 Eh       0.89 kcal/mol
Thermal translational correction ...      0.00141627 Eh       0.89 kcal/mol
-----------------------------------------------------------------------
Total thermal energy                  -1220.37139378 Eh

Summary of corrections to the electronic energy:
(perhaps to be used in another calculation)
Total thermal correction                  0.01352320 Eh       8.49 kcal/mol
Non-thermal (ZPE) correction              0.11146739 Eh      69.95 kcal/mol
-----------------------------------------------------------------------
Total correction                          0.12499059 Eh      78.43 kcal/mol

--------
ENTHALPY
--------

The enthalpy is H = U + kB*T
                kB is Boltzmann's constant
Total thermal energy              ...  -1220.37139378 Eh
Thermal Enthalpy correction       ...      0.00094421 Eh       0.59 kcal/mol
-----------------------------------------------------------------------
Total Enthalpy                    ...  -1220.37044957 Eh

Note: Only C1 symmetry has been detected, increase convergence thresholds
      if your molecule has a higher symmetry. Symmetry factor of 1.0 is
      used for the rotational entropy correction.

Note: Rotational entropy computed according to Herzberg
Infrared and Raman Spectra, Chapter V,1, Van Nostrand Reinhold, 1945
Point Group:  C1, Symmetry Number:   1
Rotational constants in cm-1:     0.044542     0.026499     0.020966

Vibrational entropy computed according to the QRRHO of S. Grimme
Chem.Eur.J. 2012 18 9955 using a reference frequency of 100.0 cm-1

-------
ENTROPY
-------

The entropy contributions are T*S = T*(S(el)+S(vib)+S(rot)+S(trans))
     S(el)   - electronic entropy
     S(vib)  - vibrational entropy
     S(rot)  - rotational entropy
     S(trans)- translational entropy
The entropies will be listed as multiplied by the temperature to get
units of energy

Electronic entropy                ...      0.00000000 Eh      0.00 kcal/mol
Vibrational entropy               ...      0.01820069 Eh     11.42 kcal/mol
Rotational entropy                ...      0.01451819 Eh      9.11 kcal/mol
Translational entropy             ...      0.01944577 Eh     12.20 kcal/mol
-----------------------------------------------------------------------
Final entropy term                ...      0.05216465 Eh     32.73 kcal/mol

In case the symmetry of your molecule has not been determined correctly
or in case you have a reason to use a different symmetry number we print
out the resulting rotational entropy values for sn=1,12:

 non-linear molecules -----------------------------------
|  sn= 1 | S(rot)=       0.01451819 Eh      9.11 kcal/mol|
|  sn= 2 | S(rot)=       0.01386373 Eh      8.70 kcal/mol|
|  sn= 3 | S(rot)=       0.01348090 Eh      8.46 kcal/mol|
|  sn= 4 | S(rot)=       0.01320927 Eh      8.29 kcal/mol|
|  sn= 5 | S(rot)=       0.01299859 Eh      8.16 kcal/mol|
|  sn= 6 | S(rot)=       0.01282644 Eh      8.05 kcal/mol|

                             ****ORCA TERMINATED NORMALLY****
TOTAL RUN TIME: 0 days 0 hours 6 minutes 51 seconds 841 msec
