                         Program Version 6.1.0  -  RELEASE   -
|  1> # Geometry optimization for (AlH3)n cluster
|  2>
|  3> %pal nprocs 24  end
|  4>
|  5> %geom MaxIter 500 end
|  6>
|  7>
|  8> ! PBE def2-TZVP
|  9> ! RKS	# closed shell for AlH3
| 10> ! D3    #  dispersion correction
| 11> ! Freq 	# Frequency analysis to check the stabiltity of the structures
| 12>
| 13> ! NoPop # population analysis not necessary
| 14>
| 15> ! DEFGRID3
| 16> ! TightSCF
| 17> ! TightOpt
| 18>
| 19> ! SmallPrint
| 20>
| 21>
| 22> * xyzFile 0 1 start.xyz # only maingroup elements H and Al so there should be no net spin
| 23>
| 24>                          ****END OF INPUT****
 Total Charge           Charge          ....    0
 Multiplicity           Mult            ....    1
 Number of Electrons    NEL             ....  128
Dispersion correction           -0.041701976
FINAL SINGLE POINT ENERGY     -1952.744421958259
Dispersion correction             ... done (  0.1 sec)
Dispersion correction           -0.041766390
FINAL SINGLE POINT ENERGY     -1952.744490036400
Dispersion correction             ... done (  0.1 sec)
Dispersion correction           -0.042012262
FINAL SINGLE POINT ENERGY     -1952.744615993161
Dispersion correction             ... done (  0.1 sec)
FINAL SINGLE POINT ENERGY     -1952.744632273740
FINAL SINGLE POINT ENERGY     -1952.744707760426
FINAL SINGLE POINT ENERGY     -1952.744723690037
FINAL SINGLE POINT ENERGY     -1952.744740073510
FINAL SINGLE POINT ENERGY     -1952.744755248116
FINAL SINGLE POINT ENERGY     -1952.744770100817
FINAL SINGLE POINT ENERGY     -1952.744781778865
FINAL SINGLE POINT ENERGY     -1952.744886860800
FINAL SINGLE POINT ENERGY     -1952.744887273172
FINAL SINGLE POINT ENERGY     -1952.744887604166
FINAL SINGLE POINT ENERGY     -1952.744887854702
FINAL SINGLE POINT ENERGY     -1952.744888101554
FINAL SINGLE POINT ENERGY     -1952.744888334250
FINAL SINGLE POINT ENERGY     -1952.744888528099
Dispersion correction             ... done (  0.1 sec)
Dispersion correction           -0.042475664
FINAL SINGLE POINT ENERGY     -1952.744888648905
Dispersion correction             ... done (  0.1 sec)
Dispersion correction           -0.042474235
FINAL SINGLE POINT ENERGY     -1952.744888766164
Dispersion correction             ... done (  0.1 sec)
                    ***********************HURRAY********************

CARTESIAN COORDINATES (ANGSTROEM)
---------------------------------
  Al    -0.166993    2.456338    0.696192
  Al    -2.951211    1.174701    1.342006
  Al    -0.178694   -0.226157    0.858470
  Al     2.665310    1.167874    0.818004
  Al     0.189941   -0.627528    4.128121
  Al    -2.235873    1.605422    4.575976
  Al     2.168672    1.984696    3.907061
  Al     0.292061    1.413813    6.477520
  H      0.786891    1.615261    7.970388
  H      0.500314   -0.117479    5.864122
  H      1.026180    2.325262    5.319028
  H     -1.315324    1.658588    6.201889
  H     -1.593891    2.937426    3.988293
  H     -3.568561    1.230041    5.354062
  H     -3.093034    1.138258    2.972928
  H     -4.318339    1.106036    0.538525
  H     -1.291508    0.187462    4.186432
  H     -1.952110   -0.117918    1.050500
  H     -0.083140   -0.913450    2.426769
  H     -0.241635   -1.452307   -0.153421
  H      1.618915   -0.123542    0.841282
  H      3.108762    1.344235    2.389941
  H      3.860292    0.991304   -0.211161
  H      3.464134    1.773744    4.803060
  H      0.383198   -2.141125    4.559495
  H      1.407534    0.442196    3.674114
  H     -0.192699    4.017974    0.456371
  H     -1.990264    2.459938    0.939778
  H      1.641680    2.417323    0.458749
  H     -0.303267    1.161748   -0.384916
  H      1.534304    3.217998    3.121052
  H     -0.067926    1.337868    1.933748

 Multiplicity           Mult            ....    1
 Number of Electrons    NEL             ....  128
 Basis Dimension        Dim             ....  440

ORBITAL ENERGIES
----------------

  NO   OCC          E(Eh)            E(eV)
   0   2.0000     -55.408495     -1507.7418
   1   2.0000     -55.400758     -1507.5313
   2   2.0000     -55.398013     -1507.4566
   3   2.0000     -55.386420     -1507.1411
   4   2.0000     -55.385281     -1507.1101
   5   2.0000     -55.384328     -1507.0842
   6   2.0000     -55.383046     -1507.0493
   7   2.0000     -55.382921     -1507.0459
   8   2.0000      -3.965308      -107.9015
   9   2.0000      -3.956243      -107.6548
  10   2.0000      -3.956096      -107.6509
  11   2.0000      -3.946729      -107.3959
  12   2.0000      -3.945600      -107.3652
  13   2.0000      -3.943719      -107.3141
  14   2.0000      -3.942680      -107.2858
  15   2.0000      -3.941367      -107.2500
  16   2.0000      -2.569146       -69.9100
  17   2.0000      -2.568134       -69.8825
  18   2.0000      -2.564274       -69.7775
  19   2.0000      -2.560389       -69.6717
  20   2.0000      -2.560080       -69.6633
  21   2.0000      -2.559986       -69.6608
  22   2.0000      -2.559195       -69.6392
  23   2.0000      -2.555150       -69.5292
  24   2.0000      -2.553488       -69.4839
  25   2.0000      -2.550431       -69.4008
  26   2.0000      -2.549339       -69.3710
  27   2.0000      -2.549263       -69.3690
  28   2.0000      -2.548141       -69.3385
  29   2.0000      -2.547389       -69.3180
  30   2.0000      -2.547252       -69.3142
  31   2.0000      -2.546595       -69.2964
  32   2.0000      -2.546462       -69.2927
  33   2.0000      -2.546086       -69.2825
  34   2.0000      -2.545930       -69.2783
  35   2.0000      -2.545282       -69.2606
  36   2.0000      -2.544760       -69.2464
  37   2.0000      -2.542753       -69.1918
  38   2.0000      -2.539701       -69.1088
  39   2.0000      -2.538225       -69.0686
  40   2.0000      -0.524111       -14.2618
  41   2.0000      -0.490382       -13.3440
  42   2.0000      -0.460862       -12.5407
  43   2.0000      -0.428961       -11.6726
  44   2.0000      -0.419731       -11.4215
  45   2.0000      -0.413521       -11.2525
  46   2.0000      -0.393105       -10.6969
  47   2.0000      -0.375143       -10.2082
  48   2.0000      -0.347477        -9.4553
  49   2.0000      -0.344319        -9.3694
  50   2.0000      -0.341471        -9.2919
  51   2.0000      -0.329779        -8.9738
  52   2.0000      -0.325874        -8.8675
  53   2.0000      -0.314965        -8.5706
  54   2.0000      -0.303140        -8.2489
  55   2.0000      -0.302181        -8.2228
  56   2.0000      -0.299873        -8.1600
  57   2.0000      -0.281669        -7.6646
  58   2.0000      -0.275175        -7.4879
  59   2.0000      -0.272715        -7.4210
  60   2.0000      -0.269729        -7.3397
  61   2.0000      -0.269510        -7.3337
  62   2.0000      -0.264644        -7.2013
  63   2.0000      -0.252851        -6.8804
  64   0.0000      -0.087746        -2.3877
  65   0.0000      -0.085977        -2.3395
  66   0.0000      -0.076876        -2.0919
  67   0.0000      -0.054418        -1.4808
  68   0.0000      -0.049277        -1.3409

-------
TIMINGS
-------

Dispersion correction           -0.042472966
FINAL SINGLE POINT ENERGY     -1952.744888902862

DIPOLE MOMENT
-------------

Method             : SCF
Type of density    : Electron Density
Multiplicity       :   1
Irrep              :   0
Energy             : -1952.7024159364777915 Eh
Basis              : AO
                                X                 Y                 Z
Electronic contribution:      0.025415695       0.433877266       0.090982595
Nuclear contribution   :     -0.025459694      -0.306460632      -0.095283627
                        -----------------------------------------
Total Dipole Moment    :     -0.000043999       0.127416634      -0.004301032
                        -----------------------------------------
Magnitude (a.u.)       :      0.127489213
Magnitude (Debye)      :      0.324051828

VIBRATIONAL FREQUENCIES
-----------------------

Scaling factor for frequencies =  1.000000000  (already applied!)

     0:       0.00 cm**-1
     1:       0.00 cm**-1
     2:       0.00 cm**-1
     3:       0.00 cm**-1
     4:       0.00 cm**-1
     5:       0.00 cm**-1
     6:      33.31 cm**-1
     7:      62.37 cm**-1
     8:      89.52 cm**-1
     9:     100.48 cm**-1
    10:     113.92 cm**-1
    11:     131.97 cm**-1
    12:     141.32 cm**-1
    13:     166.11 cm**-1
    14:     179.05 cm**-1
    15:     196.08 cm**-1
    16:     198.07 cm**-1
    17:     203.24 cm**-1
    18:     208.25 cm**-1
    19:     224.58 cm**-1
    20:     233.37 cm**-1
    21:     247.19 cm**-1
    22:     261.12 cm**-1
    23:     266.61 cm**-1
    24:     277.95 cm**-1
    25:     306.26 cm**-1
    26:     316.28 cm**-1
    27:     336.97 cm**-1
    28:     341.22 cm**-1
    29:     354.93 cm**-1
    30:     362.34 cm**-1
    31:     393.48 cm**-1
    32:     398.08 cm**-1
    33:     412.56 cm**-1
    34:     437.01 cm**-1
    35:     454.26 cm**-1
    36:     474.73 cm**-1
    37:     484.94 cm**-1
    38:     500.98 cm**-1
    39:     541.17 cm**-1
    40:     545.52 cm**-1
    41:     546.01 cm**-1
    42:     572.41 cm**-1
    43:     574.63 cm**-1
    44:     589.64 cm**-1
    45:     606.90 cm**-1
    46:     610.85 cm**-1
    47:     623.25 cm**-1
    48:     649.68 cm**-1
    49:     660.39 cm**-1
    50:     685.32 cm**-1
    51:     719.19 cm**-1
    52:     722.37 cm**-1
    53:     734.43 cm**-1
    54:     750.57 cm**-1
    55:     782.41 cm**-1
    56:     798.09 cm**-1
    57:     834.87 cm**-1
    58:     840.99 cm**-1
    59:     854.44 cm**-1
    60:     881.46 cm**-1
    61:     887.35 cm**-1
    62:     923.54 cm**-1
    63:     937.50 cm**-1
    64:     946.28 cm**-1
    65:     963.63 cm**-1
    66:     980.01 cm**-1
    67:     987.75 cm**-1
    68:    1029.26 cm**-1
    69:    1031.50 cm**-1
    70:    1034.84 cm**-1
    71:    1167.85 cm**-1
    72:    1542.56 cm**-1
    73:    1635.32 cm**-1
    74:    1671.09 cm**-1
    75:    1702.00 cm**-1
    76:    1724.59 cm**-1
    77:    1734.32 cm**-1
    78:    1740.24 cm**-1
    79:    1775.91 cm**-1
    80:    1809.62 cm**-1
    81:    1812.15 cm**-1
    82:    1820.94 cm**-1
    83:    1830.62 cm**-1
    84:    1841.97 cm**-1
    85:    1873.18 cm**-1
    86:    1888.43 cm**-1
    87:    1894.99 cm**-1
    88:    1895.61 cm**-1
    89:    1903.89 cm**-1
    90:    1904.28 cm**-1
    91:    1908.35 cm**-1
    92:    1910.63 cm**-1
    93:    1916.86 cm**-1
    94:    1927.34 cm**-1
    95:    1942.72 cm**-1

IR SPECTRUM
-----------

 Mode   freq       eps      Int      T**2         TX        TY        TZ
       cm**-1   L/(mol*cm) km/mol    a.u.
----------------------------------------------------------------------------
  6:     33.31   0.000128    0.65  0.001199  ( 0.033585 -0.007780  0.003267)
  7:     62.37   0.000026    0.13  0.000132  (-0.002912 -0.001761  0.010965)
  8:     89.52   0.000081    0.41  0.000282  (-0.014957  0.006293  0.004311)
  9:    100.48   0.000119    0.60  0.000371  (-0.008750 -0.013840  0.010133)
 10:    113.92   0.000117    0.59  0.000321  ( 0.013345 -0.011403  0.003602)
 11:    131.97   0.000058    0.29  0.000138  ( 0.008968  0.002640 -0.007107)
 12:    141.32   0.000079    0.40  0.000175  ( 0.010531 -0.004236 -0.006782)
 13:    166.11   0.000203    1.02  0.000381  (-0.008404 -0.007795 -0.015800)
 14:    179.05   0.000359    1.81  0.000625  ( 0.004897 -0.019634  0.014688)
 15:    196.08   0.000774    3.91  0.001232  ( 0.019455  0.021774 -0.019475)
 16:    198.07   0.000280    1.42  0.000441  (-0.005814 -0.016559  0.011550)
 17:    203.24   0.000140    0.71  0.000215  (-0.009076  0.007476  0.008764)
 18:    208.25   0.000713    3.61  0.001069  (-0.021863  0.015039  0.019104)
 19:    224.58   0.000599    3.02  0.000832  ( 0.023309 -0.000915 -0.016957)
 20:    233.37   0.000273    1.38  0.000364  (-0.017715  0.007041  0.001018)
 21:    247.19   0.001474    7.45  0.001861  ( 0.019051  0.033856  0.018754)
 22:    261.12   0.001324    6.69  0.001583  ( 0.035539 -0.016969 -0.005632)
 23:    266.61   0.000148    0.75  0.000174  (-0.006463 -0.011392 -0.001435)
 24:    277.95   0.002674   13.51  0.003002  (-0.052830 -0.012848  0.006808)
 25:    306.26   0.002542   12.85  0.002590  (-0.015714  0.008309  0.047687)
 26:    316.28   0.000752    3.80  0.000742  ( 0.003245 -0.010322  0.024996)
 27:    336.97   0.001869    9.45  0.001731  (-0.011262 -0.035660  0.018241)
 28:    341.22   0.003564   18.01  0.003259  ( 0.007453  0.019955  0.052969)
 29:    354.93   0.000470    2.38  0.000414  ( 0.011641  0.001380  0.016616)
 30:    362.34   0.001000    5.05  0.000861  ( 0.010100 -0.017140  0.021577)
 31:    393.48   0.006266   31.67  0.004970  ( 0.068375 -0.016421  0.004987)
 32:    398.08   0.017190   86.87  0.013475  ( 0.013857 -0.015399  0.114220)
 33:    412.56   0.000738    3.73  0.000558  (-0.015439  0.017637  0.002922)
 34:    437.01   0.002286   11.55  0.001632  ( 0.001664  0.035498 -0.019222)
 35:    454.26   0.001301    6.57  0.000894  ( 0.026285 -0.013181  0.005400)
 36:    474.73   0.003964   20.03  0.002605  (-0.026103 -0.038871  0.020326)
 37:    484.94   0.006431   32.50  0.004138  (-0.032594 -0.041436 -0.036867)
 38:    500.98   0.004098   20.71  0.002553  (-0.017671  0.047171 -0.003937)
 39:    541.17   0.003370   17.03  0.001943  ( 0.010233  0.018927 -0.038475)
 40:    545.52   0.005093   25.74  0.002913  (-0.045486  0.010757 -0.026991)
 41:    546.01   0.001266    6.40  0.000724  (-0.009294  0.023154  0.010054)
 42:    572.41   0.001896    9.58  0.001033  (-0.029479 -0.009032 -0.009104)
 43:    574.63   0.009487   47.94  0.005152  (-0.058121 -0.001829  0.042077)
 44:    589.64   0.004662   23.56  0.002467  ( 0.022285 -0.043703  0.007784)
 45:    606.90   0.012780   64.58  0.006571  (-0.014310  0.076910 -0.021240)
 46:    610.85   0.016575   83.77  0.008468  (-0.001818 -0.021420 -0.089475)
 47:    623.25   0.036402  183.96  0.018227  ( 0.129881  0.031933 -0.018383)
 48:    649.68   0.091801  463.92  0.044095  ( 0.006671  0.029622  0.207782)
 49:    660.39   0.030038  151.80  0.014194  (-0.075844  0.089734  0.019738)
 50:    685.32   0.014361   72.57  0.006539  ( 0.052579 -0.002512  0.061387)
 51:    719.19   0.198188  1001.56  0.085996  (-0.107822 -0.018107 -0.272108)
 52:    722.37   0.048772  246.47  0.021070  ( 0.052256  0.028739 -0.132336)
 53:    734.43   0.000869    4.39  0.000369  (-0.013995  0.004366  0.012414)
 54:    750.57   0.054063  273.21  0.022478  ( 0.118959  0.064998 -0.064046)
 55:    782.41   0.138623  700.54  0.055290  ( 0.227325 -0.039894 -0.044959)
 56:    798.09   0.127555  644.61  0.049876  (-0.218080 -0.047420  0.008269)
 57:    834.87   0.049104  248.15  0.018354  ( 0.010318 -0.050126 -0.125441)
 58:    840.99   0.012748   64.42  0.004730  ( 0.020542 -0.018232 -0.063056)
 59:    854.44   0.033813  170.88  0.012349  ( 0.032304 -0.070770 -0.079356)
 60:    881.46   0.038020  192.14  0.013460  (-0.068124  0.086753  0.035962)
 61:    887.35   0.046198  233.46  0.016247  ( 0.067583  0.099005  0.043327)
 62:    923.54   0.012169   61.50  0.004112  ( 0.011109 -0.035425 -0.052285)
 63:    937.50   0.020873  105.48  0.006948  (-0.020927  0.024230  0.076960)
 64:    946.28   0.017835   90.13  0.005882  (-0.050205  0.047225  0.033630)
 65:    963.63   0.010471   52.91  0.003391  (-0.015484  0.006237 -0.055787)
 66:    980.01   0.073945  373.69  0.023546  (-0.011894  0.136591 -0.068902)
 67:    987.75   0.009206   46.52  0.002909  ( 0.051338  0.016521 -0.000053)
 68:   1029.26   0.054728  276.57  0.016593  (-0.128213 -0.001358  0.012356)
 69:   1031.50   0.032435  163.91  0.009813  (-0.038004  0.006300 -0.091261)
 70:   1034.84   0.018796   94.99  0.005668  ( 0.063345  0.012254 -0.038797)
 71:   1167.85   0.018653   94.26  0.004984  ( 0.002396 -0.065354  0.026598)
 72:   1542.56   0.025484  128.79  0.005155  ( 0.010741  0.024351  0.066687)
 73:   1635.32   0.018687   94.43  0.003566  (-0.004726  0.022284 -0.055200)
 74:   1671.09   0.004545   22.97  0.000849  (-0.000342  0.028629 -0.005389)
 75:   1702.00   0.016928   85.55  0.003104  (-0.019123  0.025058  0.045936)
 76:   1724.59   0.011521   58.22  0.002085  (-0.024964  0.001244 -0.038210)
 77:   1734.32   0.015239   77.01  0.002742  ( 0.046253  0.002848 -0.024385)
 78:   1740.24   0.038029  192.18  0.006819  ( 0.062976  0.015460  0.051133)
 79:   1775.91   0.124853  630.95  0.021939  ( 0.027836  0.085777 -0.117502)
 80:   1809.62   0.175635  887.59  0.030288  ( 0.048478 -0.098733 -0.134868)
 81:   1812.15   0.211063  1066.62  0.036346  ( 0.000137  0.002574  0.190629)
 82:   1820.94   0.131493  664.51  0.022535  (-0.129033 -0.061134 -0.046345)
 83:   1830.62   0.250759  1267.23  0.042747  ( 0.204511 -0.021177 -0.021760)
 84:   1841.97   0.064700  326.97  0.010961  (-0.082045  0.012009 -0.063920)
 85:   1873.18   0.088889  449.21  0.014809  (-0.052787  0.103771 -0.035407)
 86:   1888.43   0.051088  258.18  0.008442  (-0.089261 -0.019017 -0.010634)
 87:   1894.99   0.006891   34.83  0.001135  (-0.019151  0.009020  0.026206)
 88:   1895.61   0.031912  161.27  0.005253  (-0.049924 -0.003391  0.052436)
 89:   1903.89   0.014456   73.05  0.002369  (-0.041659 -0.007599 -0.024004)
 90:   1904.28   0.023224  117.36  0.003806  (-0.035291 -0.009173  0.049761)
 91:   1908.35   0.023729  119.92  0.003880  ( 0.026077  0.047313  0.031013)
 92:   1910.63   0.027132  137.11  0.004431  (-0.004909 -0.035562  0.056060)
 93:   1916.86   0.015256   77.10  0.002484  (-0.036455  0.000279  0.033980)
 94:   1927.34   0.012837   64.87  0.002079  ( 0.002698  0.045100 -0.006103)
 95:   1942.72   0.051628  260.90  0.008293  ( 0.012934  0.088231 -0.018467)

--------------------------
THERMOCHEMISTRY AT 298.15K
--------------------------

Temperature         ...   298.15 K
Pressure            ...     1.00 atm
Total Mass          ...   240.05 AMU
Quasi RRHO          ...     True
Cut-Off Frequency   ...     1.00 cm^-1

Throughout the following assumptions are being made:
  (1) The electronic state is orbitally nondegenerate
  (2) There are no thermally accessible electronically excited states
  (3) Hindered rotations indicated by low frequency modes are not
      treated as such but are treated as vibrations and this may
      cause some error
  (4) All equations used are the standard statistical mechanics
      equations for an ideal gas
  (5) All vibrations are strictly harmonic

freq.      33.31  E(vib)   ...       0.55
freq.      62.37  E(vib)   ...       0.51
freq.      89.52  E(vib)   ...       0.47
freq.     100.48  E(vib)   ...       0.46
freq.     113.92  E(vib)   ...       0.44
freq.     131.97  E(vib)   ...       0.42
freq.     141.32  E(vib)   ...       0.41
freq.     166.11  E(vib)   ...       0.39
freq.     179.05  E(vib)   ...       0.37
freq.     196.08  E(vib)   ...       0.36
freq.     198.07  E(vib)   ...       0.35
freq.     203.24  E(vib)   ...       0.35
freq.     208.25  E(vib)   ...       0.34
freq.     224.58  E(vib)   ...       0.33
freq.     233.37  E(vib)   ...       0.32
freq.     247.19  E(vib)   ...       0.31
freq.     261.12  E(vib)   ...       0.30
freq.     266.61  E(vib)   ...       0.29
freq.     277.95  E(vib)   ...       0.28
freq.     306.26  E(vib)   ...       0.26
freq.     316.28  E(vib)   ...       0.25
freq.     336.97  E(vib)   ...       0.24
freq.     341.22  E(vib)   ...       0.23
freq.     354.93  E(vib)   ...       0.22
freq.     362.34  E(vib)   ...       0.22
freq.     393.48  E(vib)   ...       0.20
freq.     398.08  E(vib)   ...       0.20
freq.     412.56  E(vib)   ...       0.19
freq.     437.01  E(vib)   ...       0.17
freq.     454.26  E(vib)   ...       0.16
freq.     474.73  E(vib)   ...       0.15
freq.     484.94  E(vib)   ...       0.15
freq.     500.98  E(vib)   ...       0.14
freq.     541.17  E(vib)   ...       0.12
freq.     545.52  E(vib)   ...       0.12
freq.     546.01  E(vib)   ...       0.12
freq.     572.41  E(vib)   ...       0.11
freq.     574.63  E(vib)   ...       0.11
freq.     589.64  E(vib)   ...       0.10
freq.     606.90  E(vib)   ...       0.10
freq.     610.85  E(vib)   ...       0.10
freq.     623.25  E(vib)   ...       0.09
freq.     649.68  E(vib)   ...       0.08
freq.     660.39  E(vib)   ...       0.08
freq.     685.32  E(vib)   ...       0.07
freq.     719.19  E(vib)   ...       0.07
freq.     722.37  E(vib)   ...       0.07
freq.     734.43  E(vib)   ...       0.06
freq.     750.57  E(vib)   ...       0.06
freq.     782.41  E(vib)   ...       0.05
freq.     798.09  E(vib)   ...       0.05
freq.     834.87  E(vib)   ...       0.04
freq.     840.99  E(vib)   ...       0.04
freq.     854.44  E(vib)   ...       0.04
freq.     881.46  E(vib)   ...       0.04
freq.     887.35  E(vib)   ...       0.04
freq.     923.54  E(vib)   ...       0.03
freq.     937.50  E(vib)   ...       0.03
freq.     946.28  E(vib)   ...       0.03
freq.     963.63  E(vib)   ...       0.03
freq.     980.01  E(vib)   ...       0.02
freq.     987.75  E(vib)   ...       0.02
freq.    1029.26  E(vib)   ...       0.02
freq.    1031.50  E(vib)   ...       0.02
freq.    1034.84  E(vib)   ...       0.02
freq.    1167.85  E(vib)   ...       0.01
freq.    1542.56  E(vib)   ...       0.00
freq.    1635.32  E(vib)   ...       0.00
freq.    1671.09  E(vib)   ...       0.00
freq.    1702.00  E(vib)   ...       0.00
freq.    1724.59  E(vib)   ...       0.00
freq.    1734.32  E(vib)   ...       0.00
freq.    1740.24  E(vib)   ...       0.00
freq.    1775.91  E(vib)   ...       0.00
freq.    1809.62  E(vib)   ...       0.00
freq.    1812.15  E(vib)   ...       0.00
freq.    1820.94  E(vib)   ...       0.00
freq.    1830.62  E(vib)   ...       0.00
freq.    1841.97  E(vib)   ...       0.00
freq.    1873.18  E(vib)   ...       0.00
freq.    1888.43  E(vib)   ...       0.00
freq.    1894.99  E(vib)   ...       0.00
freq.    1895.61  E(vib)   ...       0.00
freq.    1903.89  E(vib)   ...       0.00
freq.    1904.28  E(vib)   ...       0.00
freq.    1908.35  E(vib)   ...       0.00
freq.    1910.63  E(vib)   ...       0.00
freq.    1916.86  E(vib)   ...       0.00
freq.    1927.34  E(vib)   ...       0.00
freq.    1942.72  E(vib)   ...       0.00

------------
INNER ENERGY
------------

The inner energy is: U= E(el) + E(ZPE) + E(vib) + E(rot) + E(trans)
    E(el)   - is the total energy from the electronic structure calculation
              = E(kin-el) + E(nuc-el) + E(el-el) + E(nuc-nuc)
    E(ZPE)  - the the zero temperature vibrational energy from the frequency calculation
    E(vib)  - the the finite temperature correction to E(ZPE) due to population
              of excited vibrational states
    E(rot)  - is the rotational thermal energy
    E(trans)- is the translational thermal energy

Summary of contributions to the inner energy U:
Electronic energy                ...  -1952.74488890 Eh
Zero point energy                ...      0.17890507 Eh     112.26 kcal/mol
Thermal vibrational correction   ...      0.01921845 Eh      12.06 kcal/mol
Thermal rotational correction    ...      0.00141627 Eh       0.89 kcal/mol
Thermal translational correction ...      0.00141627 Eh       0.89 kcal/mol
-----------------------------------------------------------------------
Total thermal energy                  -1952.54393284 Eh

Summary of corrections to the electronic energy:
(perhaps to be used in another calculation)
Total thermal correction                  0.02205099 Eh      13.84 kcal/mol
Non-thermal (ZPE) correction              0.17890507 Eh     112.26 kcal/mol
-----------------------------------------------------------------------
Total correction                          0.20095606 Eh     126.10 kcal/mol

--------
ENTHALPY
--------

The enthalpy is H = U + kB*T
                kB is Boltzmann's constant
Total thermal energy              ...  -1952.54393284 Eh
Thermal Enthalpy correction       ...      0.00094421 Eh       0.59 kcal/mol
-----------------------------------------------------------------------
Total Enthalpy                    ...  -1952.54298864 Eh

Note: Only C1 symmetry has been detected, increase convergence thresholds
      if your molecule has a higher symmetry. Symmetry factor of 1.0 is
      used for the rotational entropy correction.

Note: Rotational entropy computed according to Herzberg
Infrared and Raman Spectra, Chapter V,1, Van Nostrand Reinhold, 1945
Point Group:  C1, Symmetry Number:   1
Rotational constants in cm-1:     0.015986     0.012951     0.009159

                             ****ORCA TERMINATED NORMALLY****
TOTAL RUN TIME: 0 days 0 hours 33 minutes 39 seconds 399 msec
