                         Program Version 6.1.0  -  RELEASE   -
|  1> # Geometry optimization for (AlH3)n cluster
|  2>
|  3> %pal nprocs 24  end
|  4>
|  5> %geom MaxIter 500 end
|  6>
|  7> %elprop Polar 1 end # invoke raman
|  8>
|  9> ! PBEh-3c
| 10> ! RKS	# closed shell for AlH3
| 11> ! Freq 	# Frequency analysis to check the stabiltity of the structures
| 12>
| 13>
| 14> ! NoPop # population analysis not necessary
| 15>
| 16> ! DEFGRID3
| 17> ! ExtremeSCF
| 18> ! VeryTightOpt
| 19>
| 20>
| 21> ! SmallPrint
| 22>
| 23>
| 24> * xyzFile 0 1 start.xyz # only maingroup elements H and Al so there should be no net spin
| 25>
| 26>                          ****END OF INPUT****
 Total Charge           Charge          ....    0
 Multiplicity           Mult            ....    1
 Number of Electrons    NEL             ....   48
Dispersion correction           -0.004338730
FINAL SINGLE POINT ENERGY      -731.684587756231
Dispersion correction             ... done (  0.1 sec)
Dispersion correction           -0.004342484
FINAL SINGLE POINT ENERGY      -731.685372146723
Dispersion correction             ... done (  0.1 sec)
Dispersion correction           -0.004354662
FINAL SINGLE POINT ENERGY      -731.687070625547
Dispersion correction             ... done (  0.1 sec)
FINAL SINGLE POINT ENERGY      -731.687475407464
FINAL SINGLE POINT ENERGY      -731.687604449312
FINAL SINGLE POINT ENERGY      -731.687728239320
FINAL SINGLE POINT ENERGY      -731.687745002535
FINAL SINGLE POINT ENERGY      -731.687752156335
FINAL SINGLE POINT ENERGY      -731.687757047252
FINAL SINGLE POINT ENERGY      -731.687760410978
FINAL SINGLE POINT ENERGY      -731.687832102347
FINAL SINGLE POINT ENERGY      -731.687832216330
FINAL SINGLE POINT ENERGY      -731.687832329742
FINAL SINGLE POINT ENERGY      -731.687832437212
FINAL SINGLE POINT ENERGY      -731.687832516660
FINAL SINGLE POINT ENERGY      -731.687832568563
FINAL SINGLE POINT ENERGY      -731.687832604731
Dispersion correction             ... done (  0.1 sec)
Dispersion correction           -0.004343852
FINAL SINGLE POINT ENERGY      -731.687832628493
Dispersion correction             ... done (  0.1 sec)
Dispersion correction           -0.004343854
FINAL SINGLE POINT ENERGY      -731.687832639391
Dispersion correction             ... done (  0.1 sec)
                    ***********************HURRAY********************

CARTESIAN COORDINATES (ANGSTROEM)
---------------------------------
  Al    -0.270001    1.483243    2.586151
  Al    -0.037551    0.047303   -0.115156
  H      0.689393   -0.937906    1.058431
  H     -1.275951   -0.724712   -0.697615
  H     -0.688829    1.172045    0.975082
  H     -1.459706    2.306990    3.196257
  H     -0.462196   -0.105223    3.141148
  H      1.143707    0.737183   -0.886326
  Al     0.250944   -1.539595    2.582343
  H      1.597395   -1.755513    3.361049
  H     -0.942966   -2.541496    2.383573
  H      1.272289    1.793372    2.607532

 Multiplicity           Mult            ....    1
 Number of Electrons    NEL             ....   48
 Basis Dimension        Dim             ....   72

ORBITAL ENERGIES
----------------

  NO   OCC          E(Eh)            E(eV)
   0   2.0000     -56.621174     -1540.7405
   1   2.0000     -56.620971     -1540.7350
   2   2.0000     -56.620929     -1540.7338
   3   2.0000      -4.363491      -118.7366
   4   2.0000      -4.362909      -118.7208
   5   2.0000      -4.362897      -118.7205
   6   2.0000      -2.854276       -77.6688
   7   2.0000      -2.853829       -77.6566
   8   2.0000      -2.853760       -77.6548
   9   2.0000      -2.852733       -77.6268
  10   2.0000      -2.852141       -77.6107
  11   2.0000      -2.852096       -77.6095
  12   2.0000      -2.848144       -77.5019
  13   2.0000      -2.847457       -77.4832
  14   2.0000      -2.847449       -77.4830
  15   2.0000      -0.601019       -16.3546
  16   2.0000      -0.498993       -13.5783
  17   2.0000      -0.494767       -13.4633
  18   2.0000      -0.399576       -10.8730
  19   2.0000      -0.394496       -10.7348
  20   2.0000      -0.383034       -10.4229
  21   2.0000      -0.374905       -10.2017
  22   2.0000      -0.359664        -9.7870
  23   2.0000      -0.358446        -9.7538
  24   0.0000      -0.008345        -0.2271
  25   0.0000      -0.004885        -0.1329
  26   0.0000      -0.000080        -0.0022
  27   0.0000       0.021360         0.5812
  28   0.0000       0.044888         1.2215

-------
TIMINGS
-------

Dispersion correction           -0.004343842
FINAL SINGLE POINT ENERGY      -731.687832644361

DIPOLE MOMENT
-------------

Method             : SCF
Type of density    : Electron Density
Multiplicity       :   1
Irrep              :   0
Energy             :  -731.7034561816815312 Eh
Basis              : AO
                                X                 Y                 Z
Electronic contribution:     -0.116514733       0.061760345       0.048135234
Nuclear contribution   :      0.037547036      -0.024572203      -0.018251425
                        -----------------------------------------
Total Dipole Moment    :     -0.078967697       0.037188142       0.029883810
                        -----------------------------------------
Magnitude (a.u.)       :      0.092259944
Magnitude (Debye)      :      0.234506140

VIBRATIONAL FREQUENCIES
-----------------------

Scaling factor for frequencies =  1.000000000  (already applied!)

     0:       0.00 cm**-1
     1:       0.00 cm**-1
     2:       0.00 cm**-1
     3:       0.00 cm**-1
     4:       0.00 cm**-1
     5:       0.00 cm**-1
     6:      64.02 cm**-1
     7:     104.93 cm**-1
     8:     137.80 cm**-1
     9:     242.04 cm**-1
    10:     294.86 cm**-1
    11:     331.13 cm**-1
    12:     440.35 cm**-1
    13:     440.71 cm**-1
    14:     452.98 cm**-1
    15:     518.55 cm**-1
    16:     563.52 cm**-1
    17:     582.87 cm**-1
    18:     710.15 cm**-1
    19:     710.27 cm**-1
    20:     752.48 cm**-1
    21:     789.09 cm**-1
    22:     805.29 cm**-1
    23:     827.17 cm**-1
    24:    1028.17 cm**-1
    25:    1088.35 cm**-1
    26:    1145.44 cm**-1
    27:    1818.15 cm**-1
    28:    1897.25 cm**-1
    29:    1914.85 cm**-1
    30:    2012.63 cm**-1
    31:    2018.68 cm**-1
    32:    2021.90 cm**-1
    33:    2029.28 cm**-1
    34:    2030.15 cm**-1
    35:    2035.66 cm**-1

IR SPECTRUM
-----------

 Mode   freq       eps      Int      T**2         TX        TY        TZ
       cm**-1   L/(mol*cm) km/mol    a.u.
----------------------------------------------------------------------------
  6:     64.02   0.000201    1.01  0.000978  ( 0.001496 -0.015620  0.027060)
  7:    104.93   0.000583    2.94  0.001733  ( 0.040858 -0.004616 -0.006471)
  8:    137.80   0.000063    0.32  0.000144  ( 0.001094 -0.010301 -0.006029)
  9:    242.04   0.000374    1.89  0.000482  ( 0.002093 -0.011235  0.018752)
 10:    294.86   0.001850    9.35  0.001958  (-0.035725  0.020580  0.016068)
 11:    331.13   0.000672    3.40  0.000634  (-0.022231  0.009011  0.007622)
 12:    440.35   0.000354    1.79  0.000251  ( 0.009956 -0.005345 -0.011114)
 13:    440.71   0.000500    2.53  0.000354  ( 0.004953 -0.011904  0.013715)
 14:    452.98   0.001416    7.16  0.000976  ( 0.002928 -0.015900  0.026724)
 15:    518.55   0.000104    0.53  0.000063  ( 0.000711 -0.003985  0.006802)
 16:    563.52   0.020532  103.76  0.011370  ( 0.080571 -0.055314 -0.042648)
 17:    582.87   0.017086   86.34  0.009147  ( 0.010013 -0.049407  0.081278)
 18:    710.15   0.128752  650.66  0.056578  (-0.022053  0.118601 -0.205001)
 19:    710.27   0.131010  662.07  0.057560  (-0.016306 -0.207799 -0.118801)
 20:    752.48   0.000370    1.87  0.000153  (-0.010451  0.005352  0.003928)
 21:    789.09   0.045647  230.68  0.018052  ( 0.011378 -0.067247  0.115761)
 22:    805.29   0.052183  263.71  0.020222  ( 0.016613 -0.121386 -0.072189)
 23:    827.17   0.025387  128.30  0.009578  (-0.067789 -0.063338 -0.031156)
 24:   1028.17   0.062528  315.99  0.018978  ( 0.123531 -0.046228 -0.039764)
 25:   1088.35   0.039717  200.71  0.011388  (-0.009372  0.054121 -0.091494)
 26:   1145.44   0.010667   53.91  0.002906  ( 0.049436 -0.015527 -0.014868)
 27:   1818.15   0.005255   26.56  0.000902  (-0.002876  0.015945 -0.025288)
 28:   1897.25   0.243876  1232.45  0.040113  (-0.022276  0.171474  0.101063)
 29:   1914.85   0.262979  1328.99  0.042858  (-0.018815  0.102795 -0.178709)
 30:   2012.63   0.006548   33.09  0.001015  (-0.025999  0.014612  0.011218)
 31:   2018.68   0.001339    6.77  0.000207  (-0.013563 -0.004757 -0.000627)
 32:   2021.90   0.002948   14.90  0.000455  ( 0.001656 -0.010600  0.018435)
 33:   2029.28   0.010464   52.88  0.001609  (-0.019454  0.029674  0.018714)
 34:   2030.15   0.003561   18.00  0.000547  (-0.000366  0.011320 -0.020473)
 35:   2035.66   0.089032  449.93  0.013648  (-0.111985 -0.032430 -0.007494)

--------------------------
THERMOCHEMISTRY AT 298.15K
--------------------------

Temperature         ...   298.15 K
Pressure            ...     1.00 atm
Total Mass          ...    90.02 AMU
Quasi RRHO          ...     True
Cut-Off Frequency   ...     1.00 cm^-1

Throughout the following assumptions are being made:
  (1) The electronic state is orbitally nondegenerate
  (2) There are no thermally accessible electronically excited states
  (3) Hindered rotations indicated by low frequency modes are not
      treated as such but are treated as vibrations and this may
      cause some error
  (4) All equations used are the standard statistical mechanics
      equations for an ideal gas
  (5) All vibrations are strictly harmonic

freq.      64.02  E(vib)   ...       0.51
freq.     104.93  E(vib)   ...       0.46
freq.     137.80  E(vib)   ...       0.42
freq.     242.04  E(vib)   ...       0.31
freq.     294.86  E(vib)   ...       0.27
freq.     331.13  E(vib)   ...       0.24
freq.     440.35  E(vib)   ...       0.17
freq.     440.71  E(vib)   ...       0.17
freq.     452.98  E(vib)   ...       0.16
freq.     518.55  E(vib)   ...       0.13
freq.     563.52  E(vib)   ...       0.11
freq.     582.87  E(vib)   ...       0.11
freq.     710.15  E(vib)   ...       0.07
freq.     710.27  E(vib)   ...       0.07
freq.     752.48  E(vib)   ...       0.06
freq.     789.09  E(vib)   ...       0.05
freq.     805.29  E(vib)   ...       0.05
freq.     827.17  E(vib)   ...       0.04
freq.    1028.17  E(vib)   ...       0.02
freq.    1088.35  E(vib)   ...       0.02
freq.    1145.44  E(vib)   ...       0.01
freq.    1818.15  E(vib)   ...       0.00
freq.    1897.25  E(vib)   ...       0.00
freq.    1914.85  E(vib)   ...       0.00
freq.    2012.63  E(vib)   ...       0.00
freq.    2018.68  E(vib)   ...       0.00
freq.    2021.90  E(vib)   ...       0.00
freq.    2029.28  E(vib)   ...       0.00
freq.    2030.15  E(vib)   ...       0.00
freq.    2035.66  E(vib)   ...       0.00

------------
INNER ENERGY
------------

The inner energy is: U= E(el) + E(ZPE) + E(vib) + E(rot) + E(trans)
    E(el)   - is the total energy from the electronic structure calculation
              = E(kin-el) + E(nuc-el) + E(el-el) + E(nuc-nuc)
    E(ZPE)  - the the zero temperature vibrational energy from the frequency calculation
    E(vib)  - the the finite temperature correction to E(ZPE) due to population
              of excited vibrational states
    E(rot)  - is the rotational thermal energy
    E(trans)- is the translational thermal energy

Summary of contributions to the inner energy U:
Electronic energy                ...   -731.68783264 Eh
Zero point energy                ...      0.06790922 Eh      42.61 kcal/mol
Thermal vibrational correction   ...      0.00549609 Eh       3.45 kcal/mol
Thermal rotational correction    ...      0.00141627 Eh       0.89 kcal/mol
Thermal translational correction ...      0.00141627 Eh       0.89 kcal/mol
-----------------------------------------------------------------------
Total thermal energy                   -731.61159479 Eh

Summary of corrections to the electronic energy:
(perhaps to be used in another calculation)
Total thermal correction                  0.00832863 Eh       5.23 kcal/mol
Non-thermal (ZPE) correction              0.06790922 Eh      42.61 kcal/mol
-----------------------------------------------------------------------
Total correction                          0.07623785 Eh      47.84 kcal/mol

--------
ENTHALPY
--------

The enthalpy is H = U + kB*T
                kB is Boltzmann's constant
Total thermal energy              ...   -731.61159479 Eh
Thermal Enthalpy correction       ...      0.00094421 Eh       0.59 kcal/mol
-----------------------------------------------------------------------
Total Enthalpy                    ...   -731.61065058 Eh

Note: Only C1 symmetry has been detected, increase convergence thresholds
      if your molecule has a higher symmetry. Symmetry factor of 1.0 is
      used for the rotational entropy correction.

Note: Rotational entropy computed according to Herzberg
Infrared and Raman Spectra, Chapter V,1, Van Nostrand Reinhold, 1945
Point Group:  C1, Symmetry Number:   1
Rotational constants in cm-1:     0.106902     0.101192     0.055872

Vibrational entropy computed according to the QRRHO of S. Grimme
Chem.Eur.J. 2012 18 9955 using a reference frequency of 100.0 cm-1

-------
ENTROPY
-------

The entropy contributions are T*S = T*(S(el)+S(vib)+S(rot)+S(trans))
     S(el)   - electronic entropy
     S(vib)  - vibrational entropy
     S(rot)  - rotational entropy
     S(trans)- translational entropy
The entropies will be listed as multiplied by the temperature to get
units of energy

Electronic entropy                ...      0.00000000 Eh      0.00 kcal/mol
Vibrational entropy               ...      0.00928424 Eh      5.83 kcal/mol
Rotational entropy                ...      0.01300960 Eh      8.16 kcal/mol
Translational entropy             ...      0.01872231 Eh     11.75 kcal/mol
-----------------------------------------------------------------------
Final entropy term                ...      0.04101614 Eh     25.74 kcal/mol

In case the symmetry of your molecule has not been determined correctly
or in case you have a reason to use a different symmetry number we print
out the resulting rotational entropy values for sn=1,12:

 non-linear molecules -----------------------------------
|  sn= 1 | S(rot)=       0.01300960 Eh      8.16 kcal/mol|
|  sn= 2 | S(rot)=       0.01235514 Eh      7.75 kcal/mol|
|  sn= 3 | S(rot)=       0.01197231 Eh      7.51 kcal/mol|
|  sn= 4 | S(rot)=       0.01170069 Eh      7.34 kcal/mol|
|  sn= 5 | S(rot)=       0.01149000 Eh      7.21 kcal/mol|
|  sn= 6 | S(rot)=       0.01131785 Eh      7.10 kcal/mol|
|  sn= 7 | S(rot)=       0.01117231 Eh      7.01 kcal/mol|
|  sn= 8 | S(rot)=       0.01104623 Eh      6.93 kcal/mol|
|  sn= 9 | S(rot)=       0.01093502 Eh      6.86 kcal/mol|
|  sn=10 | S(rot)=       0.01083554 Eh      6.80 kcal/mol|
|  sn=11 | S(rot)=       0.01074555 Eh      6.74 kcal/mol|
|  sn=12 | S(rot)=       0.01066340 Eh      6.69 kcal/mol|
 linear molecules ---------------------------------------
|  Dinfh | S(rot)=       0.00804948 Eh      5.05 kcal/mol|
|  Cinfv | S(rot)=       0.00870393 Eh      5.46 kcal/mol|
 --------------------------------------------------------

-------------------
GIBBS FREE ENERGY
-------------------

The Gibbs free energy is G = H - T*S

Total enthalpy                    ...   -731.61065058 Eh
Total entropy correction          ...     -0.04101614 Eh    -25.74 kcal/mol
-----------------------------------------------------------------------
Final Gibbs free energy         ...   -731.65166672 Eh

For completeness - the Gibbs free energy minus the electronic energy

                             ****ORCA TERMINATED NORMALLY****
TOTAL RUN TIME: 0 days 0 hours 16 minutes 51 seconds 333 msec
