                         Program Version 6.1.0  -  RELEASE   -
|  1> # Geometry optimization for (AlH3)n cluster
|  2>
|  3> %pal nprocs 64  end
|  4>
|  5> %geom MaxIter 500 end
|  6>
|  7>
|  8> ! PBE pc-1
|  9> ! RKS	# closed shell for AlH3
| 10> ! D3    #  dispersion correction
| 11> ! Freq 	# Frequency analysis to check the stabiltity of the structures
| 12>
| 13> ! NoPop # population analysis not necessary
| 14>
| 15> ! DEFGRID3
| 16> ! TightSCF
| 17> ! TightOpt
| 18>
| 19> ! SmallPrint
| 20>
| 21>
| 22> * xyzFile 0 1 start.xyz # only maingroup elements H and Al so there should be no net spin
| 23>
| 24>                          ****END OF INPUT****
 Total Charge           Charge          ....    0
 Multiplicity           Mult            ....    1
 Number of Electrons    NEL             ....   96
Dispersion correction           -0.024544920
FINAL SINGLE POINT ENERGY     -1464.062364610603
Dispersion correction             ... done (  0.0 sec)
Dispersion correction           -0.024409339
FINAL SINGLE POINT ENERGY     -1464.121001793425
Dispersion correction             ... done (  0.0 sec)
Dispersion correction           -0.024336775
FINAL SINGLE POINT ENERGY     -1464.173993366703
Dispersion correction             ... done (  0.0 sec)
FINAL SINGLE POINT ENERGY     -1464.237677027679
FINAL SINGLE POINT ENERGY     -1464.308312461614
FINAL SINGLE POINT ENERGY     -1464.357452981822
FINAL SINGLE POINT ENERGY     -1464.392608261021
FINAL SINGLE POINT ENERGY     -1464.419498174385
FINAL SINGLE POINT ENERGY     -1464.441187285824
FINAL SINGLE POINT ENERGY     -1464.457700036151
FINAL SINGLE POINT ENERGY     -1464.487405439173
FINAL SINGLE POINT ENERGY     -1464.487405824714
FINAL SINGLE POINT ENERGY     -1464.487406126971
FINAL SINGLE POINT ENERGY     -1464.487406372401
FINAL SINGLE POINT ENERGY     -1464.487406583602
FINAL SINGLE POINT ENERGY     -1464.487406793102
FINAL SINGLE POINT ENERGY     -1464.487406964284
Dispersion correction             ... done (  0.0 sec)
Dispersion correction           -0.024698791
FINAL SINGLE POINT ENERGY     -1464.487407102442
Dispersion correction             ... done (  0.0 sec)
Dispersion correction           -0.024697599
FINAL SINGLE POINT ENERGY     -1464.487407208132
Dispersion correction             ... done (  0.0 sec)
                    ***********************HURRAY********************

CARTESIAN COORDINATES (ANGSTROEM)
---------------------------------
  Al    -0.001171    1.230305    3.068656
  Al     0.315324   -0.307941    0.406385
  H      1.416390   -1.551051    0.829214
  H     -1.163217   -0.797524    0.742891
  H      0.856430    0.717356    1.668493
  H     -1.364139    1.908071    2.594271
  H     -0.422980   -0.304040    3.675161
  H      0.850831    0.326970   -0.949154
  Al     1.069379   -3.115252    1.454866
  H      0.151482   -2.640473    2.808684
  H      0.051209   -3.832783    0.459520
  H      1.110533    1.873624    4.010922
  Al     0.628700   -1.615438    4.135654
  H     -0.964712   -2.225499    4.705731
  H      2.066910   -1.091283    3.675216
  H      2.475774   -3.674063    1.952404
  Al    -1.805648   -2.854297    6.018501
  H     -2.174667   -4.377335    5.740971
  H     -2.699496   -1.715298    6.679302
  Al     1.128685   -2.406947    6.598848
  H      2.253646   -2.537429    7.701734
  H      0.743735   -0.938239    5.910157
  H      1.282476   -3.121382    5.101089
  H     -0.389114   -2.954672    7.077313

 Multiplicity           Mult            ....    1
 Number of Electrons    NEL             ....   96
 Basis Dimension        Dim             ....  198

ORBITAL ENERGIES
----------------

  NO   OCC          E(Eh)            E(eV)
   0   2.0000     -55.404150     -1507.6236
   1   2.0000     -55.395039     -1507.3756
   2   2.0000     -55.377073     -1506.8868
   3   2.0000     -55.368598     -1506.6561
   4   2.0000     -55.365387     -1506.5688
   5   2.0000     -55.365322     -1506.5670
   6   2.0000      -3.968325      -107.9836
   7   2.0000      -3.967042      -107.9487
   8   2.0000      -3.948101      -107.4333
   9   2.0000      -3.940011      -107.2132
  10   2.0000      -3.936308      -107.1124
  11   2.0000      -3.936247      -107.1107
  12   2.0000      -2.572014       -69.9881
  13   2.0000      -2.571996       -69.9876
  14   2.0000      -2.570734       -69.9532
  15   2.0000      -2.570491       -69.9466
  16   2.0000      -2.567134       -69.8553
  17   2.0000      -2.565369       -69.8072
  18   2.0000      -2.553903       -69.4952
  19   2.0000      -2.550614       -69.4057
  20   2.0000      -2.545368       -69.2630
  21   2.0000      -2.545151       -69.2571
  22   2.0000      -2.542799       -69.1931
  23   2.0000      -2.541372       -69.1542
  24   2.0000      -2.541309       -69.1525
  25   2.0000      -2.539210       -69.0954
  26   2.0000      -2.539151       -69.0938
  27   2.0000      -2.537510       -69.0491
  28   2.0000      -2.533863       -68.9499
  29   2.0000      -2.533799       -68.9482
  30   2.0000      -0.515451       -14.0261
  31   2.0000      -0.469549       -12.7771
  32   2.0000      -0.425288       -11.5727
  33   2.0000      -0.419999       -11.4288
  34   2.0000      -0.405848       -11.0437
  35   2.0000      -0.361268        -9.8306
  36   2.0000      -0.347227        -9.4485
  37   2.0000      -0.326282        -8.8786
  38   2.0000      -0.317033        -8.6269
  39   2.0000      -0.312686        -8.5086
  40   2.0000      -0.311319        -8.4714
  41   2.0000      -0.298856        -8.1323
  42   2.0000      -0.287984        -7.8364
  43   2.0000      -0.282315        -7.6822
  44   2.0000      -0.281298        -7.6545
  45   2.0000      -0.271062        -7.3760
  46   2.0000      -0.264541        -7.1985
  47   2.0000      -0.254475        -6.9246
  48   0.0000      -0.092720        -2.5230
  49   0.0000      -0.066724        -1.8157
  50   0.0000      -0.059434        -1.6173
  51   0.0000      -0.058943        -1.6039
  52   0.0000      -0.039227        -1.0674

-------
TIMINGS
-------

Dispersion correction           -0.024696863
FINAL SINGLE POINT ENERGY     -1464.487407305566

DIPOLE MOMENT
-------------

Method             : SCF
Type of density    : Electron Density
Multiplicity       :   1
Irrep              :   0
Energy             : -1464.4627104425087509 Eh
Basis              : AO
                                X                 Y                 Z
Electronic contribution:     -0.011302263      -0.594030655       1.541605616
Nuclear contribution   :      0.065796812       0.239179855      -0.581055575
                        -----------------------------------------
Total Dipole Moment    :      0.054494549      -0.354850800       0.960550041
                        -----------------------------------------
Magnitude (a.u.)       :      1.025448745
Magnitude (Debye)      :      2.606483569

VIBRATIONAL FREQUENCIES
-----------------------

Scaling factor for frequencies =  1.000000000  (already applied!)

     0:       0.00 cm**-1
     1:       0.00 cm**-1
     2:       0.00 cm**-1
     3:       0.00 cm**-1
     4:       0.00 cm**-1
     5:       0.00 cm**-1
     6:     -26.13 cm**-1  ***imaginary mode***
     7:      42.22 cm**-1
     8:      51.55 cm**-1
     9:      81.35 cm**-1
    10:     104.15 cm**-1
    11:     124.20 cm**-1
    12:     131.25 cm**-1
    13:     154.18 cm**-1
    14:     171.98 cm**-1
    15:     200.64 cm**-1
    16:     209.78 cm**-1
    17:     235.31 cm**-1
    18:     257.90 cm**-1
    19:     286.98 cm**-1
    20:     323.97 cm**-1
    21:     355.80 cm**-1
    22:     360.65 cm**-1
    23:     378.63 cm**-1
    24:     393.49 cm**-1
    25:     395.74 cm**-1
    26:     413.36 cm**-1
    27:     443.52 cm**-1
    28:     463.22 cm**-1
    29:     497.08 cm**-1
    30:     511.96 cm**-1
    31:     548.03 cm**-1
    32:     564.86 cm**-1
    33:     589.84 cm**-1
    34:     651.64 cm**-1
    35:     656.97 cm**-1
    36:     679.76 cm**-1
    37:     684.51 cm**-1
    38:     688.46 cm**-1
    39:     703.98 cm**-1
    40:     718.89 cm**-1
    41:     726.05 cm**-1
    42:     737.00 cm**-1
    43:     772.23 cm**-1
    44:     815.93 cm**-1
    45:     824.18 cm**-1
    46:     909.77 cm**-1
    47:     989.99 cm**-1
    48:    1063.09 cm**-1
    49:    1092.14 cm**-1
    50:    1096.81 cm**-1
    51:    1106.42 cm**-1
    52:    1128.42 cm**-1
    53:    1153.26 cm**-1
    54:    1617.71 cm**-1
    55:    1664.70 cm**-1
    56:    1696.03 cm**-1
    57:    1697.64 cm**-1
    58:    1754.02 cm**-1
    59:    1775.64 cm**-1
    60:    1811.55 cm**-1
    61:    1858.83 cm**-1
    62:    1894.37 cm**-1
    63:    1903.91 cm**-1
    64:    1907.14 cm**-1
    65:    1908.98 cm**-1
    66:    1914.45 cm**-1
    67:    1915.31 cm**-1
    68:    1918.84 cm**-1
    69:    1928.74 cm**-1
    70:    1929.14 cm**-1
    71:    1959.35 cm**-1

IR SPECTRUM
-----------

 Mode   freq       eps      Int      T**2         TX        TY        TZ
       cm**-1   L/(mol*cm) km/mol    a.u.
----------------------------------------------------------------------------
  7:     42.22   0.000016    0.08  0.000120  ( 0.006342 -0.002088  0.008707)
  8:     51.55   0.000035    0.18  0.000213  (-0.002899  0.013120  0.005692)
  9:     81.35   0.000029    0.15  0.000111  ( 0.001721 -0.003136  0.009900)
 10:    104.15   0.000091    0.46  0.000272  (-0.016215 -0.002071 -0.002243)
 11:    124.20   0.000849    4.29  0.002134  ( 0.010246 -0.042563 -0.014734)
 12:    131.25   0.000011    0.06  0.000026  (-0.003159  0.001224  0.003798)
 13:    154.18   0.000006    0.03  0.000012  (-0.000743  0.002931  0.001790)
 14:    171.98   0.000143    0.72  0.000260  (-0.010847  0.001349 -0.011839)
 15:    200.64   0.000517    2.61  0.000804  (-0.007395  0.021503 -0.016927)
 16:    209.78   0.002433   12.30  0.003620  ( 0.006225 -0.008485  0.059236)
 17:    235.31   0.000012    0.06  0.000016  ( 0.000827 -0.002423  0.003021)
 18:    257.90   0.001751    8.85  0.002119  (-0.006445 -0.018456  0.041680)
 19:    286.98   0.000290    1.47  0.000316  ( 0.004409 -0.017210 -0.000417)
 20:    323.97   0.000745    3.76  0.000717  ( 0.000467  0.009580 -0.025009)
 21:    355.80   0.000687    3.47  0.000602  (-0.023625 -0.006555  0.001016)
 22:    360.65   0.000092    0.47  0.000080  ( 0.001735 -0.008240 -0.002965)
 23:    378.63   0.009157   46.28  0.007547  (-0.056177 -0.034770  0.056413)
 24:    393.49   0.001662    8.40  0.001318  (-0.015068 -0.014994  0.029430)
 25:    395.74   0.000025    0.13  0.000020  (-0.002214  0.001478  0.003605)
 26:    413.36   0.000003    0.02  0.000002  (-0.000276  0.001328  0.000668)
 27:    443.52   0.003121   15.77  0.002196  ( 0.004940 -0.014296  0.044356)
 28:    463.22   0.000417    2.11  0.000281  ( 0.003693 -0.015473 -0.005273)
 29:    497.08   0.024232  122.46  0.015213  (-0.063181 -0.049962  0.093406)
 30:    511.96   0.000362    1.83  0.000221  ( 0.001320 -0.014618 -0.002310)
 31:    548.03   0.014533   73.44  0.008275  (-0.035237 -0.031283  0.077814)
 32:    564.86   0.017545   88.66  0.009693  ( 0.018808 -0.093213 -0.025505)
 33:    589.84   0.043127  217.95  0.022817  ( 0.053097  0.056906 -0.129458)
 34:    651.64   0.043663  220.65  0.020910  ( 0.034130 -0.127063 -0.060000)
 35:    656.97   0.041382  209.13  0.019656  ( 0.033498 -0.122536 -0.059324)
 36:    679.76   0.119127  602.02  0.054689  (-0.057500 -0.092055  0.207143)
 37:    684.51   0.145881  737.22  0.066506  ( 0.040455 -0.243072 -0.076061)
 38:    688.46   0.051613  260.83  0.023395  ( 0.150189  0.008958 -0.027535)
 39:    703.98   0.054346  274.64  0.024091  ( 0.105090 -0.018774  0.112670)
 40:    718.89   0.004778   24.15  0.002074  ( 0.012966 -0.042575 -0.009669)
 41:    726.05   0.105776  534.55  0.045464  (-0.000063  0.076200 -0.199142)
 42:    737.00   0.009430   47.65  0.003993  (-0.013672  0.057304  0.022848)
 43:    772.23   0.021799  110.17  0.008809  ( 0.069337 -0.007665  0.062793)
 44:    815.93   0.026983  136.36  0.010320  ( 0.052301 -0.087041  0.002927)
 45:    824.18   0.062155  314.10  0.023534  ( 0.109021  0.019600  0.106132)
 46:    909.77   0.040064  202.47  0.013743  (-0.006826  0.032663 -0.112380)
 47:    989.99   0.023566  119.09  0.007428  (-0.021079  0.078707  0.028093)
 48:   1063.09   0.000017    0.09  0.000005  ( 0.000502  0.002181  0.000146)
 49:   1092.14   0.015280   77.22  0.004366  (-0.058643 -0.023085  0.019853)
 50:   1096.81   0.006263   31.65  0.001782  ( 0.013621 -0.037112 -0.014804)
 51:   1106.42   0.057747  291.83  0.016288  (-0.123709 -0.030674 -0.006534)
 52:   1128.42   0.014336   72.45  0.003965  (-0.056576 -0.000369 -0.027634)
 53:   1153.26   0.113188  572.00  0.030628  ( 0.009549 -0.060031  0.164112)
 54:   1617.71   0.021963  110.99  0.004237  (-0.014113  0.060226  0.020257)
 55:   1664.70   0.147579  745.80  0.027665  ( 0.032358  0.059806 -0.151794)
 56:   1696.03   0.172331  870.89  0.031708  (-0.057370 -0.049864  0.161030)
 57:   1697.64   0.102412  517.55  0.018826  ( 0.033175  0.074972 -0.110019)
 58:   1754.02   0.117357  593.07  0.020879  (-0.141284 -0.030080 -0.003645)
 59:   1775.64   0.348828  1762.83  0.061305  (-0.054853  0.226816  0.082770)
 60:   1811.55   0.099437  502.51  0.017129  (-0.018051  0.041647 -0.122756)
 61:   1858.83   0.075267  380.37  0.012636  ( 0.100028  0.035917 -0.036611)
 62:   1894.37   0.025709  129.92  0.004235  (-0.054583  0.001958 -0.035383)
 63:   1903.91   0.003505   17.71  0.000574  (-0.005217  0.021697  0.008744)
 64:   1907.14   0.000384    1.94  0.000063  (-0.000329  0.002484 -0.007516)
 65:   1908.98   0.012238   61.85  0.002001  (-0.010822  0.012885 -0.041442)
 66:   1914.45   0.000241    1.22  0.000039  ( 0.006151  0.000362  0.001141)
 67:   1915.31   0.000046    0.23  0.000008  (-0.002574  0.000791 -0.000567)
 68:   1918.84   0.069171  349.56  0.011249  ( 0.095851  0.006797  0.044897)
 69:   1928.74   0.029975  151.48  0.004850  (-0.049492 -0.026839  0.040990)
 70:   1929.14   0.040175  203.03  0.006499  ( 0.014666 -0.074915 -0.025912)
 71:   1959.35   0.018579   93.89  0.002959  ( 0.032552 -0.007646  0.042906)

--------------------------
THERMOCHEMISTRY AT 298.15K
--------------------------

Temperature         ...   298.15 K
Pressure            ...     1.00 atm
Total Mass          ...   180.04 AMU
Quasi RRHO          ...     True
Cut-Off Frequency   ...     1.00 cm^-1

Throughout the following assumptions are being made:
  (1) The electronic state is orbitally nondegenerate
  (2) There are no thermally accessible electronically excited states
  (3) Hindered rotations indicated by low frequency modes are not
      treated as such but are treated as vibrations and this may
      cause some error
  (4) All equations used are the standard statistical mechanics
      equations for an ideal gas
  (5) All vibrations are strictly harmonic

freq.      42.22  E(vib)   ...       0.53
freq.      51.55  E(vib)   ...       0.52
freq.      81.35  E(vib)   ...       0.48
freq.     104.15  E(vib)   ...       0.46
freq.     124.20  E(vib)   ...       0.43
freq.     131.25  E(vib)   ...       0.42
freq.     154.18  E(vib)   ...       0.40
freq.     171.98  E(vib)   ...       0.38
freq.     200.64  E(vib)   ...       0.35
freq.     209.78  E(vib)   ...       0.34
freq.     235.31  E(vib)   ...       0.32
freq.     257.90  E(vib)   ...       0.30
freq.     286.98  E(vib)   ...       0.27
freq.     323.97  E(vib)   ...       0.25
freq.     355.80  E(vib)   ...       0.22
freq.     360.65  E(vib)   ...       0.22
freq.     378.63  E(vib)   ...       0.21
freq.     393.49  E(vib)   ...       0.20
freq.     395.74  E(vib)   ...       0.20
freq.     413.36  E(vib)   ...       0.19
freq.     443.52  E(vib)   ...       0.17
freq.     463.22  E(vib)   ...       0.16
freq.     497.08  E(vib)   ...       0.14
freq.     511.96  E(vib)   ...       0.14
freq.     548.03  E(vib)   ...       0.12
freq.     564.86  E(vib)   ...       0.11
freq.     589.84  E(vib)   ...       0.10
freq.     651.64  E(vib)   ...       0.08
freq.     656.97  E(vib)   ...       0.08
freq.     679.76  E(vib)   ...       0.08
freq.     684.51  E(vib)   ...       0.07
freq.     688.46  E(vib)   ...       0.07
freq.     703.98  E(vib)   ...       0.07
freq.     718.89  E(vib)   ...       0.07
freq.     726.05  E(vib)   ...       0.06
freq.     737.00  E(vib)   ...       0.06
freq.     772.23  E(vib)   ...       0.05
freq.     815.93  E(vib)   ...       0.05
freq.     824.18  E(vib)   ...       0.05
freq.     909.77  E(vib)   ...       0.03
freq.     989.99  E(vib)   ...       0.02
freq.    1063.09  E(vib)   ...       0.02
freq.    1092.14  E(vib)   ...       0.02
freq.    1096.81  E(vib)   ...       0.02
freq.    1106.42  E(vib)   ...       0.02
freq.    1128.42  E(vib)   ...       0.01
freq.    1153.26  E(vib)   ...       0.01
freq.    1617.71  E(vib)   ...       0.00
freq.    1664.70  E(vib)   ...       0.00
freq.    1696.03  E(vib)   ...       0.00
freq.    1697.64  E(vib)   ...       0.00
freq.    1754.02  E(vib)   ...       0.00
freq.    1775.64  E(vib)   ...       0.00
freq.    1811.55  E(vib)   ...       0.00
freq.    1858.83  E(vib)   ...       0.00
freq.    1894.37  E(vib)   ...       0.00
freq.    1903.91  E(vib)   ...       0.00
freq.    1907.14  E(vib)   ...       0.00
freq.    1908.98  E(vib)   ...       0.00
freq.    1914.45  E(vib)   ...       0.00
freq.    1915.31  E(vib)   ...       0.00
freq.    1918.84  E(vib)   ...       0.00
freq.    1928.74  E(vib)   ...       0.00
freq.    1929.14  E(vib)   ...       0.00
freq.    1959.35  E(vib)   ...       0.00

------------
INNER ENERGY
------------

The inner energy is: U= E(el) + E(ZPE) + E(vib) + E(rot) + E(trans)
    E(el)   - is the total energy from the electronic structure calculation
              = E(kin-el) + E(nuc-el) + E(el-el) + E(nuc-nuc)
    E(ZPE)  - the the zero temperature vibrational energy from the frequency calculation
    E(vib)  - the the finite temperature correction to E(ZPE) due to population
              of excited vibrational states
    E(rot)  - is the rotational thermal energy
    E(trans)- is the translational thermal energy

Summary of contributions to the inner energy U:
Electronic energy                ...  -1464.48740731 Eh
Zero point energy                ...      0.13338090 Eh      83.70 kcal/mol
Thermal vibrational correction   ...      0.01370012 Eh       8.60 kcal/mol
Thermal rotational correction    ...      0.00141627 Eh       0.89 kcal/mol
Thermal translational correction ...      0.00141627 Eh       0.89 kcal/mol
-----------------------------------------------------------------------
Total thermal energy                  -1464.33749374 Eh

Summary of corrections to the electronic energy:
(perhaps to be used in another calculation)
Total thermal correction                  0.01653267 Eh      10.37 kcal/mol
Non-thermal (ZPE) correction              0.13338090 Eh      83.70 kcal/mol
-----------------------------------------------------------------------
Total correction                          0.14991357 Eh      94.07 kcal/mol

--------
ENTHALPY
--------

The enthalpy is H = U + kB*T
                kB is Boltzmann's constant
Total thermal energy              ...  -1464.33749374 Eh
Thermal Enthalpy correction       ...      0.00094421 Eh       0.59 kcal/mol
-----------------------------------------------------------------------
Total Enthalpy                    ...  -1464.33654953 Eh

Note: Only C1 symmetry has been detected, increase convergence thresholds
      if your molecule has a higher symmetry. Symmetry factor of 1.0 is
      used for the rotational entropy correction.

Note: Rotational entropy computed according to Herzberg
Infrared and Raman Spectra, Chapter V,1, Van Nostrand Reinhold, 1945
Point Group:  C1, Symmetry Number:   1
Rotational constants in cm-1:     0.031867     0.014000     0.012129

Vibrational entropy computed according to the QRRHO of S. Grimme
Chem.Eur.J. 2012 18 9955 using a reference frequency of 100.0 cm-1

-------
ENTROPY
-------

The entropy contributions are T*S = T*(S(el)+S(vib)+S(rot)+S(trans))
     S(el)   - electronic entropy
     S(vib)  - vibrational entropy
     S(rot)  - rotational entropy
     S(trans)- translational entropy
The entropies will be listed as multiplied by the temperature to get
units of energy

Electronic entropy                ...      0.00000000 Eh      0.00 kcal/mol
Vibrational entropy               ...      0.02362631 Eh     14.83 kcal/mol
Rotational entropy                ...      0.01523584 Eh      9.56 kcal/mol
Translational entropy             ...      0.01970399 Eh     12.36 kcal/mol
-----------------------------------------------------------------------
Final entropy term                ...      0.05856614 Eh     36.75 kcal/mol

                             ****ORCA TERMINATED NORMALLY****
TOTAL RUN TIME: 0 days 0 hours 17 minutes 38 seconds 82 msec
