                         Program Version 6.1.0  -  RELEASE   -
|  1> # Geometry optimization for (AlH3)n cluster
|  2>
|  3> %pal nprocs 24  end
|  4>
|  5> %geom MaxIter 500 end
|  6>
|  7>
|  8> ! PBE def2-SV(P)
|  9> ! RKS	# closed shell for AlH3
| 10> ! D3    #  dispersion correction
| 11> ! gCP(DFT/SV(P))
| 12>
| 13> ! NoPop # population analysis not necessary
| 14>
| 15> ! DEFGRID3
| 16> ! TightSCF
| 17> ! NormalOpt
| 18>
| 19> ! SmallPrint
| 20>
| 21>
| 22> * xyzFile 0 1 start.xyz # only maingroup elements H and Al so there should be no net spin
| 23>
| 24>                          ****END OF INPUT****
 Total Charge           Charge          ....    0
 Multiplicity           Mult            ....    1
 Number of Electrons    NEL             ....  492
Dispersion correction           -0.170300878
FINAL SINGLE POINT ENERGY     -4464.501836377253
Dispersion correction             ... done (  0.1 sec)
Dispersion correction           -0.170215324
FINAL SINGLE POINT ENERGY     -4464.501896647174
Dispersion correction             ... done (  0.1 sec)
Dispersion correction           -0.168824998
FINAL SINGLE POINT ENERGY     -4464.501196144796
Dispersion correction             ... done (  0.1 sec)
FINAL SINGLE POINT ENERGY     -4464.502067717957
FINAL SINGLE POINT ENERGY     -4464.502116492872
FINAL SINGLE POINT ENERGY     -4464.502193122864
FINAL SINGLE POINT ENERGY     -4464.502348514845
FINAL SINGLE POINT ENERGY     -4464.502425941780
FINAL SINGLE POINT ENERGY     -4464.502531639590
FINAL SINGLE POINT ENERGY     -4464.502651996171
FINAL SINGLE POINT ENERGY     -4464.503495733198
FINAL SINGLE POINT ENERGY     -4464.503505117219
FINAL SINGLE POINT ENERGY     -4464.503511919130
FINAL SINGLE POINT ENERGY     -4464.503516977895
FINAL SINGLE POINT ENERGY     -4464.503521179098
FINAL SINGLE POINT ENERGY     -4464.503524951416
FINAL SINGLE POINT ENERGY     -4464.503527937172
Dispersion correction             ... done (  0.1 sec)
Dispersion correction           -0.170615484
FINAL SINGLE POINT ENERGY     -4464.503530595754
Dispersion correction             ... done (  0.1 sec)
Dispersion correction           -0.170625313
FINAL SINGLE POINT ENERGY     -4464.503532765257
Dispersion correction             ... done (  0.1 sec)
                    ***********************HURRAY********************

CARTESIAN COORDINATES (ANGSTROEM)
---------------------------------
  Zr    -0.200428    2.241582    1.202686
  Zr     0.824505   -2.335421   -0.784607
  Zr     2.127352   -0.629222    1.947670
  Zr    -1.496583    0.487223   -1.502788
  Zr     1.971446    0.857043   -1.505182
  Zr    -1.318487   -0.944884    1.973838
  O     -1.556438    0.583580    0.582326
  O      2.154826   -0.695653   -0.144236
  O      0.407031   -1.850053    1.199586
  O      0.217879    1.680171   -0.751143
  O      0.234561   -0.615227   -1.720301
  O      0.373594    0.461561    2.133943
  O     -1.567082    2.497868    2.935565
  O     -1.855974    3.502635    0.389958
  O      1.426485    2.811791    2.621668
  O      0.972649    3.981700    0.336568
  O     -0.911957   -3.594068   -0.291301
  O     -0.572221   -2.919804   -2.858360
  O      2.377089   -3.643191    0.087544
  O      2.284901   -2.547168   -2.476339
  O      1.633923   -1.625049    3.870876
  O      2.620262    1.039600    3.407273
  O      3.269562   -2.539349    1.851562
  O      4.062139    0.314389    1.358379
  O     -3.378498   -0.550094   -0.956619
  O     -2.659026    2.375215   -1.406694
  O     -1.970522   -1.135837   -3.083502
  O     -0.991036    1.514153   -3.418526
  O      1.269945    1.690755   -3.442713
  O      2.499731    2.964264   -1.010148
  O      2.917272   -0.444437   -3.031252
  O      4.128333    0.940910   -0.828325
  O     -3.470036   -1.109692    1.244679
  O     -2.291703    0.412022    3.449320
  O     -1.896419   -3.115976    1.692063
  O     -0.630059   -1.714377    3.937939
  C     -2.237665    1.666548    3.623636
  C     -2.641588    3.351321   -0.592422
  C      2.167370    2.217652    3.474729
  C      1.900972    3.980193   -0.520910
  C     -1.567971   -3.903691    0.766421
  C     -1.467170   -2.213469   -3.472001
  C      3.169210   -3.536081    1.075331
  C      2.912096   -1.703895   -3.187088
  C      0.527657   -1.930692    4.411894
  C      4.659191    0.615284    0.272991
  C     -3.990802   -0.824545    0.130344
  C      0.112327    1.867217   -3.934019
  H     -1.830007   -2.628736   -4.457331
  H      3.849507   -4.412135    1.274319
  H      2.463284    2.821832    4.381147
  H     -3.403375    4.164564   -0.763988
  H      3.523074   -2.113802   -4.040370
  H      0.061838    2.390308   -4.931537
  H      2.255562    4.987561   -0.885854
  H      5.787209    0.606345    0.306096
  H     -1.898896   -4.976175    0.850722
  H     -5.117914   -0.830180    0.077919
  H     -2.845238    2.087847    4.474579
  H      0.577443   -2.441234    5.415196
  Al     1.024014  -10.020573   -1.596508
  Al    -1.262720   -8.973607    0.448128
  H     -0.678990   -7.526023    1.170523
  H     -2.113475   -8.476724   -0.853084
  H      0.231181   -9.613909   -0.067818
  H     -0.097578  -10.775064   -2.480282
  H      1.241808   -8.440060   -2.149719
  H     -1.887760   -9.935590    1.578009
  Al     0.975322   -6.951271    1.451884
  H      1.432946   -6.738311   -0.150712
  H      0.681565   -5.538886    2.191879
  H      2.428644  -10.629996   -1.084776
  Al     1.338144   -6.634697   -2.030029
  H     -0.406958   -6.762308   -1.507177
  H      2.941669   -6.449300   -2.138124
  H      1.778090   -8.180497    2.130182
  Al    -1.923455   -6.789986   -2.284956
  H     -3.066668   -6.066940   -1.390769
  H     -2.053043   -7.930234   -3.419098
  Al     0.100154   -4.711194   -3.522972
  H      0.614032   -4.230218   -4.977851
  H      0.740790   -6.442143   -3.658115
  H      0.896650   -4.793494   -1.995151
  H     -1.462000   -5.374177   -3.353549

 Multiplicity           Mult            ....    1
 Number of Electrons    NEL             ....  492
 Basis Dimension        Dim             ....  900

ORBITAL ENERGIES
----------------

  NO   OCC          E(Eh)            E(eV)
   0   2.0000     -55.400679     -1507.5291
   1   2.0000     -55.399508     -1507.4972
   2   2.0000     -55.394384     -1507.3578
   3   2.0000     -55.377685     -1506.9034
   4   2.0000     -55.374951     -1506.8290
   5   2.0000     -55.372134     -1506.7524
   6   2.0000     -18.816835      -512.0321
   7   2.0000     -18.803108      -511.6586
   8   2.0000     -18.802646      -511.6460
   9   2.0000     -18.802393      -511.6391
  10   2.0000     -18.802123      -511.6318
  11   2.0000     -18.801987      -511.6281
  12   2.0000     -18.801957      -511.6273
  13   2.0000     -18.801872      -511.6250
  14   2.0000     -18.801866      -511.6248
  15   2.0000     -18.801289      -511.6091
  16   2.0000     -18.801236      -511.6076
  17   2.0000     -18.801015      -511.6016
  18   2.0000     -18.800539      -511.5887
  19   2.0000     -18.799555      -511.5619
  20   2.0000     -18.799237      -511.5532
  21   2.0000     -18.799035      -511.5477
  22   2.0000     -18.798541      -511.5343
  23   2.0000     -18.798207      -511.5252
  24   2.0000     -18.796519      -511.4793
  25   2.0000     -18.796148      -511.4692
  26   2.0000     -18.795797      -511.4596
  27   2.0000     -18.795673      -511.4563
  28   2.0000     -18.795473      -511.4508
  29   2.0000     -18.795393      -511.4487
  30   2.0000     -18.772693      -510.8309
  31   2.0000     -18.770784      -510.7790
  32   2.0000     -18.770021      -510.7582
  33   2.0000     -18.769372      -510.7406
  34   2.0000     -18.768129      -510.7067
  35   2.0000     -18.767961      -510.7022
  36   2.0000     -10.058103      -273.6949
  37   2.0000     -10.052507      -273.5426
  38   2.0000     -10.052113      -273.5319
  39   2.0000     -10.052027      -273.5296
  40   2.0000     -10.051855      -273.5249
  41   2.0000     -10.049653      -273.4650
  42   2.0000     -10.049539      -273.4618
  43   2.0000     -10.049250      -273.4540
  44   2.0000     -10.048050      -273.4213
  45   2.0000     -10.046174      -273.3703
  46   2.0000     -10.045629      -273.3555
  47   2.0000     -10.045345      -273.3477
  48   2.0000      -3.948424      -107.4421
  49   2.0000      -3.946832      -107.3987
  50   2.0000      -3.946392      -107.3868
  51   2.0000      -3.932210      -107.0009
  52   2.0000      -3.930186      -106.9458
  53   2.0000      -3.925144      -106.8086
  54   2.0000      -2.556582       -69.5681
  55   2.0000      -2.554546       -69.5127
  56   2.0000      -2.554446       -69.5100
  57   2.0000      -2.554284       -69.5056
  58   2.0000      -2.553987       -69.4975
  59   2.0000      -2.552764       -69.4642
  60   2.0000      -2.550517       -69.4031
  61   2.0000      -2.549406       -69.3729
  62   2.0000      -2.548950       -69.3605
  63   2.0000      -2.541315       -69.1527
  64   2.0000      -2.539371       -69.0998
  65   2.0000      -2.537785       -69.0566
  66   2.0000      -2.536178       -69.0129
  67   2.0000      -2.534354       -68.9633
  68   2.0000      -2.533920       -68.9515
  69   2.0000      -2.531360       -68.8818
  70   2.0000      -2.531277       -68.8796
  71   2.0000      -2.526281       -68.7436
  72   2.0000      -2.065795       -56.2131
  73   2.0000      -2.064545       -56.1791
  74   2.0000      -2.063627       -56.1541
  75   2.0000      -2.062677       -56.1283
  76   2.0000      -2.062257       -56.1169
  77   2.0000      -2.061922       -56.1078
  78   2.0000      -1.247726       -33.9523
  79   2.0000      -1.244128       -33.8544
  80   2.0000      -1.243543       -33.8385
  81   2.0000      -1.242073       -33.7985
  82   2.0000      -1.240553       -33.7572
  83   2.0000      -1.240459       -33.7546
  84   2.0000      -1.238129       -33.6912
  85   2.0000      -1.237600       -33.6768
  86   2.0000      -1.236292       -33.6412
  87   2.0000      -1.236146       -33.6372
  88   2.0000      -1.235781       -33.6273
  89   2.0000      -1.234442       -33.5909
  90   2.0000      -1.233586       -33.5676
  91   2.0000      -1.232703       -33.5436
  92   2.0000      -1.231932       -33.5226
  93   2.0000      -1.231063       -33.4989
  94   2.0000      -1.230428       -33.4816
  95   2.0000      -1.230149       -33.4741
  96   2.0000      -1.014332       -27.6014
  97   2.0000      -1.010408       -27.4946
  98   2.0000      -1.009235       -27.4627
  99   2.0000      -1.009040       -27.4574
 100   2.0000      -1.008567       -27.4445
 101   2.0000      -1.007650       -27.4196
 102   2.0000      -1.006951       -27.4005
 103   2.0000      -1.006120       -27.3779
 104   2.0000      -1.003303       -27.3013
 105   2.0000      -1.002402       -27.2767
 106   2.0000      -1.000414       -27.2226
 107   2.0000      -0.999841       -27.2071
 108   2.0000      -0.938427       -25.5359
 109   2.0000      -0.929126       -25.2828
 110   2.0000      -0.928789       -25.2736
 111   2.0000      -0.928078       -25.2543
 112   2.0000      -0.927440       -25.2369
 113   2.0000      -0.926659       -25.2157
 114   2.0000      -0.925562       -25.1858
 115   2.0000      -0.924834       -25.1660
 116   2.0000      -0.922991       -25.1159
 117   2.0000      -0.922521       -25.1031
 118   2.0000      -0.921955       -25.0877
 119   2.0000      -0.919191       -25.0125
 120   2.0000      -0.841208       -22.8904
 121   2.0000      -0.832480       -22.6529
 122   2.0000      -0.831369       -22.6227
 123   2.0000      -0.823358       -22.4047
 124   2.0000      -0.820802       -22.3351
 125   2.0000      -0.818385       -22.2694
 126   2.0000      -0.576895       -15.6981
 127   2.0000      -0.570587       -15.5265
 128   2.0000      -0.569138       -15.4870
 129   2.0000      -0.569105       -15.4861
 130   2.0000      -0.566413       -15.4129
 131   2.0000      -0.565633       -15.3916
 132   2.0000      -0.564917       -15.3722
 133   2.0000      -0.563509       -15.3339
 134   2.0000      -0.561763       -15.2863
 135   2.0000      -0.559906       -15.2358
 136   2.0000      -0.557393       -15.1674
 137   2.0000      -0.557015       -15.1571
 138   2.0000      -0.512370       -13.9423
 139   2.0000      -0.486120       -13.2280
 140   2.0000      -0.483439       -13.1551
 141   2.0000      -0.482798       -13.1376
 142   2.0000      -0.482280       -13.1235
 143   2.0000      -0.480820       -13.0838
 144   2.0000      -0.478578       -13.0228
 145   2.0000      -0.478365       -13.0170
 146   2.0000      -0.477462       -12.9924
 147   2.0000      -0.476491       -12.9660
 148   2.0000      -0.475499       -12.9390
 149   2.0000      -0.474713       -12.9176
 150   2.0000      -0.472097       -12.8464
 151   2.0000      -0.470792       -12.8109
 152   2.0000      -0.470182       -12.7943
 153   2.0000      -0.468584       -12.7508
 154   2.0000      -0.467896       -12.7321
 155   2.0000      -0.467770       -12.7287
 156   2.0000      -0.467186       -12.7128
 157   2.0000      -0.465623       -12.6702
 158   2.0000      -0.458293       -12.4708
 159   2.0000      -0.455568       -12.3966
 160   2.0000      -0.454997       -12.3811
 161   2.0000      -0.454672       -12.3723
 162   2.0000      -0.453726       -12.3465
 163   2.0000      -0.442571       -12.0430
 164   2.0000      -0.437068       -11.8932
 165   2.0000      -0.431766       -11.7489
 166   2.0000      -0.430935       -11.7263
 167   2.0000      -0.430127       -11.7043
 168   2.0000      -0.421033       -11.4569
 169   2.0000      -0.420398       -11.4396
 170   2.0000      -0.418770       -11.3953
 171   2.0000      -0.418049       -11.3757
 172   2.0000      -0.415564       -11.3081
 173   2.0000      -0.412891       -11.2353
 174   2.0000      -0.411537       -11.1985
 175   2.0000      -0.411058       -11.1855
 176   2.0000      -0.400373       -10.8947
 177   2.0000      -0.394283       -10.7290
 178   2.0000      -0.383715       -10.4414
 179   2.0000      -0.381224       -10.3736
 180   2.0000      -0.377531       -10.2731
 181   2.0000      -0.377002       -10.2587
 182   2.0000      -0.371114       -10.0985
 183   2.0000      -0.370083       -10.0705
 184   2.0000      -0.369642       -10.0585
 185   2.0000      -0.368453       -10.0261
 186   2.0000      -0.352122        -9.5817
 187   2.0000      -0.345637        -9.4052
 188   2.0000      -0.345167        -9.3925
 189   2.0000      -0.343155        -9.3377
 190   2.0000      -0.341423        -9.2906
 191   2.0000      -0.340550        -9.2668
 192   2.0000      -0.333689        -9.0801
 193   2.0000      -0.332541        -9.0489
 194   2.0000      -0.328445        -8.9374
 195   2.0000      -0.323932        -8.8146
 196   2.0000      -0.323234        -8.7956
 197   2.0000      -0.321863        -8.7583
 198   2.0000      -0.320054        -8.7091
 199   2.0000      -0.317707        -8.6453
 200   2.0000      -0.313064        -8.5189
 201   2.0000      -0.312260        -8.4970
 202   2.0000      -0.310263        -8.4427
 203   2.0000      -0.310229        -8.4418
 204   2.0000      -0.307588        -8.3699
 205   2.0000      -0.306763        -8.3475
 206   2.0000      -0.305629        -8.3166
 207   2.0000      -0.302077        -8.2199
 208   2.0000      -0.300475        -8.1763
 209   2.0000      -0.299971        -8.1626
 210   2.0000      -0.298982        -8.1357
 211   2.0000      -0.297405        -8.0928
 212   2.0000      -0.297174        -8.0865
 213   2.0000      -0.296617        -8.0714
 214   2.0000      -0.295599        -8.0437
 215   2.0000      -0.294914        -8.0250
 216   2.0000      -0.294509        -8.0140
 217   2.0000      -0.292285        -7.9535
 218   2.0000      -0.291815        -7.9407
 219   2.0000      -0.290976        -7.9179
 220   2.0000      -0.290373        -7.9015
 221   2.0000      -0.287692        -7.8285
 222   2.0000      -0.286143        -7.7863
 223   2.0000      -0.285773        -7.7763
 224   2.0000      -0.284803        -7.7499
 225   2.0000      -0.283645        -7.7184
 226   2.0000      -0.283237        -7.7073
 227   2.0000      -0.282606        -7.6901
 228   2.0000      -0.282103        -7.6764
 229   2.0000      -0.281720        -7.6660
 230   2.0000      -0.279754        -7.6125
 231   2.0000      -0.279204        -7.5975
 232   2.0000      -0.278476        -7.5777
 233   2.0000      -0.277863        -7.5610
 234   2.0000      -0.275869        -7.5068
 235   2.0000      -0.272415        -7.4128
 236   2.0000      -0.271757        -7.3949
 237   2.0000      -0.262050        -7.1307
 238   2.0000      -0.258690        -7.0393
 239   2.0000      -0.256244        -6.9728
 240   2.0000      -0.253360        -6.8943
 241   2.0000      -0.250266        -6.8101
 242   2.0000      -0.248892        -6.7727
 243   2.0000      -0.248705        -6.7676
 244   2.0000      -0.245282        -6.6745
 245   2.0000      -0.231725        -6.3055
 246   0.0000      -0.132074        -3.5939
 247   0.0000      -0.129049        -3.5116
 248   0.0000      -0.105005        -2.8573
 249   0.0000      -0.103264        -2.8100
 250   0.0000      -0.101598        -2.7646

-------
TIMINGS
-------

Dispersion correction           -0.170623472
FINAL SINGLE POINT ENERGY     -4464.503534516433

DIPOLE MOMENT
-------------

Method             : SCF
Type of density    : Electron Density
Multiplicity       :   1
Irrep              :   0
Energy             : -4464.7513923400201747 Eh
Basis              : AO
                                X                 Y                 Z
Electronic contribution:     18.537979239     430.842068758      93.959861857
Nuclear contribution   :    -18.811476404    -427.450381591     -93.344290596
                        -----------------------------------------
Total Dipole Moment    :     -0.273497165       3.391687167       0.615571260
                        -----------------------------------------
Magnitude (a.u.)       :      3.457928645
Magnitude (Debye)      :      8.789356115

Rotational constants in cm-1:             0.001650             0.000919             0.000887
Rotational constants in MHz :            49.461960            27.546229            26.592207

                             ****ORCA TERMINATED NORMALLY****
TOTAL RUN TIME: 0 days 2 hours 31 minutes 40 seconds 734 msec
