                         Program Version 6.1.0  -  RELEASE   -
|  1> # Geometry optimization for (AlH3)n cluster
|  2>
|  3> %pal nprocs 24  end
|  4>
|  5> %geom MaxIter 500 end
|  6>
|  7>
|  8> ! PBE def2-SV(P)
|  9> ! RKS	# closed shell for AlH3
| 10> ! D3    #  dispersion correction
| 11> ! gCP(DFT/SV(P))
| 12> ! Freq 	# Frequency analysis to check the stabiltity of the structures
| 13>
| 14> ! NoPop # population analysis not necessary
| 15>
| 16> ! RI
| 17> ! DEFGRID2
| 18> ! NormalSCF
| 19> ! SloppyOpt
| 20>
| 21> ! SmallPrint
| 22>
| 23>
| 24> * xyzFile 0 1 start.xyz # only maingroup elements H and Al so there should be no net spin
| 25>
| 26>                          ****END OF INPUT****
 Total Charge           Charge          ....    0
 Multiplicity           Mult            ....    1
 Number of Electrons    NEL             ....   80
Dispersion correction           -0.018633802
FINAL SINGLE POINT ENERGY     -1219.633805060776
Dispersion correction             ... done (  0.1 sec)
Dispersion correction           -0.018573850
FINAL SINGLE POINT ENERGY     -1219.686132652334
Dispersion correction             ... done (  0.1 sec)
Dispersion correction           -0.018510552
FINAL SINGLE POINT ENERGY     -1219.731072710440
Dispersion correction             ... done (  0.1 sec)
FINAL SINGLE POINT ENERGY     -1219.763853333584
FINAL SINGLE POINT ENERGY     -1219.798854871787
FINAL SINGLE POINT ENERGY     -1219.835488963345
FINAL SINGLE POINT ENERGY     -1219.862162516762
FINAL SINGLE POINT ENERGY     -1219.875294132215
FINAL SINGLE POINT ENERGY     -1219.882617762906
FINAL SINGLE POINT ENERGY     -1219.892276737830
FINAL SINGLE POINT ENERGY     -1219.910116004492
FINAL SINGLE POINT ENERGY     -1219.911208279750
FINAL SINGLE POINT ENERGY     -1219.912122769203
FINAL SINGLE POINT ENERGY     -1219.912854779692
FINAL SINGLE POINT ENERGY     -1219.913645261631
FINAL SINGLE POINT ENERGY     -1219.914273632053
FINAL SINGLE POINT ENERGY     -1219.914806204142
Dispersion correction             ... done (  0.1 sec)
Dispersion correction           -0.017887024
FINAL SINGLE POINT ENERGY     -1219.915136632850
Dispersion correction             ... done (  0.1 sec)
Dispersion correction           -0.017863222
FINAL SINGLE POINT ENERGY     -1219.915328096386
Dispersion correction             ... done (  0.1 sec)
                    ***********************HURRAY********************

CARTESIAN COORDINATES (ANGSTROEM)
---------------------------------
  Al    -0.505358    1.062736    3.014163
  Al     0.304704   -0.321349    0.099281
  H     -0.377192   -1.902756    0.436801
  H     -0.409238    0.129656   -1.274846
  H     -0.580147    0.425945    1.385984
  H     -2.022349    1.569975    3.249609
  H     -0.339471   -0.463729    3.774874
  H      1.877323   -0.369367    0.457925
  Al    -0.033701   -3.374460    1.279800
  H     -0.296515   -2.673449    2.873469
  H     -1.295559   -4.355315    1.043224
  H      0.861187    1.906224    3.174769
  Al     0.822181   -1.850699    3.903333
  H      0.313258   -1.892054    5.577553
  H      2.172535   -1.186723    3.342012
  H      1.542645   -3.704923    1.182906
  Al     0.969886   -3.522988    5.974063
  H      2.191587   -3.197614    6.969766
  H      1.478530   -3.573674    4.341826
  H     -0.348095   -4.420457    6.203478

 Multiplicity           Mult            ....    1
 Number of Electrons    NEL             ....   80
 Basis Dimension        Dim             ....  120

ORBITAL ENERGIES
----------------

  NO   OCC          E(Eh)            E(eV)
   0   2.0000     -55.424444     -1508.1758
   1   2.0000     -55.403027     -1507.5930
   2   2.0000     -55.398583     -1507.4721
   3   2.0000     -55.390371     -1507.2486
   4   2.0000     -55.384567     -1507.0907
   5   2.0000      -3.975733      -108.1852
   6   2.0000      -3.958531      -107.7171
   7   2.0000      -3.953660      -107.5846
   8   2.0000      -3.945744      -107.3691
   9   2.0000      -3.943480      -107.3076
  10   2.0000      -2.582999       -70.2870
  11   2.0000      -2.582421       -70.2712
  12   2.0000      -2.578384       -70.1614
  13   2.0000      -2.567507       -69.8654
  14   2.0000      -2.564982       -69.7967
  15   2.0000      -2.562660       -69.7335
  16   2.0000      -2.560133       -69.6648
  17   2.0000      -2.559307       -69.6423
  18   2.0000      -2.554671       -69.5161
  19   2.0000      -2.554435       -69.5097
  20   2.0000      -2.552865       -69.4670
  21   2.0000      -2.552036       -69.4444
  22   2.0000      -2.549103       -69.3646
  23   2.0000      -2.546741       -69.3003
  24   2.0000      -2.544431       -69.2375
  25   2.0000      -0.489025       -13.3070
  26   2.0000      -0.452177       -12.3044
  27   2.0000      -0.422913       -11.5080
  28   2.0000      -0.400656       -10.9024
  29   2.0000      -0.346316        -9.4237
  30   2.0000      -0.342303        -9.3145
  31   2.0000      -0.316961        -8.6249
  32   2.0000      -0.309810        -8.4304
  33   2.0000      -0.302349        -8.2273
  34   2.0000      -0.295324        -8.0362
  35   2.0000      -0.285897        -7.7797
  36   2.0000      -0.280391        -7.6298
  37   2.0000      -0.279119        -7.5952
  38   2.0000      -0.272464        -7.4141
  39   2.0000      -0.268835        -7.3154
  40   0.0000      -0.081076        -2.2062
  41   0.0000      -0.068738        -1.8704
  42   0.0000      -0.064307        -1.7499
  43   0.0000      -0.048125        -1.3095
  44   0.0000      -0.043497        -1.1836

-------
TIMINGS
-------

Dispersion correction           -0.017844600
FINAL SINGLE POINT ENERGY     -1219.915484771175

DIPOLE MOMENT
-------------

Method             : SCF
Type of density    : Electron Density
Multiplicity       :   1
Irrep              :   0
Energy             : -1219.9629988799470084 Eh
Basis              : AO
                                X                 Y                 Z
Electronic contribution:     -0.265690833      -0.559251872       0.065737396
Nuclear contribution   :      0.083347879       0.272709344      -0.063425048
                        -----------------------------------------
Total Dipole Moment    :     -0.182342954      -0.286542528       0.002312349
                        -----------------------------------------
Magnitude (a.u.)       :      0.339648230
Magnitude (Debye)      :      0.863317192

VIBRATIONAL FREQUENCIES
-----------------------

Scaling factor for frequencies =  1.000000000  (already applied!)

     0:       0.00 cm**-1
     1:       0.00 cm**-1
     2:       0.00 cm**-1
     3:       0.00 cm**-1
     4:       0.00 cm**-1
     5:       0.00 cm**-1
     6:     -55.99 cm**-1  ***imaginary mode***
     7:      32.12 cm**-1
     8:      53.28 cm**-1
     9:      77.49 cm**-1
    10:      97.64 cm**-1
    11:     107.03 cm**-1
    12:     122.07 cm**-1
    13:     130.30 cm**-1
    14:     160.20 cm**-1
    15:     224.75 cm**-1
    16:     269.90 cm**-1
    17:     325.95 cm**-1
    18:     342.14 cm**-1
    19:     350.82 cm**-1
    20:     353.95 cm**-1
    21:     383.75 cm**-1
    22:     402.02 cm**-1
    23:     429.98 cm**-1
    24:     461.04 cm**-1
    25:     481.60 cm**-1
    26:     504.35 cm**-1
    27:     540.79 cm**-1
    28:     574.50 cm**-1
    29:     648.88 cm**-1
    30:     661.64 cm**-1
    31:     665.27 cm**-1
    32:     668.63 cm**-1
    33:     685.25 cm**-1
    34:     693.39 cm**-1
    35:     710.96 cm**-1
    36:     718.22 cm**-1
    37:     792.14 cm**-1
    38:     825.33 cm**-1
    39:     867.55 cm**-1
    40:     916.74 cm**-1
    41:     924.61 cm**-1
    42:    1021.13 cm**-1
    43:    1073.93 cm**-1
    44:    1339.22 cm**-1
    45:    1422.53 cm**-1
    46:    1586.46 cm**-1
    47:    1642.08 cm**-1
    48:    1787.98 cm**-1
    49:    1795.52 cm**-1
    50:    1832.13 cm**-1
    51:    1873.65 cm**-1
    52:    1874.73 cm**-1
    53:    1884.64 cm**-1
    54:    1887.64 cm**-1
    55:    1891.42 cm**-1
    56:    1894.65 cm**-1
    57:    1898.81 cm**-1
    58:    1906.67 cm**-1
    59:    1912.10 cm**-1

IR SPECTRUM
-----------

 Mode   freq       eps      Int      T**2         TX        TY        TZ
       cm**-1   L/(mol*cm) km/mol    a.u.
----------------------------------------------------------------------------
  7:     32.12   0.000036    0.18  0.000350  (-0.009705 -0.003696 -0.015552)
  8:     53.28   0.000042    0.21  0.000247  (-0.002793 -0.008449  0.012940)
  9:     77.49   0.000592    2.99  0.002385  ( 0.042913  0.002954  0.023115)
 10:     97.64   0.000048    0.24  0.000154  (-0.004109  0.010293 -0.005614)
 11:    107.03   0.000042    0.21  0.000121  ( 0.010724  0.001580  0.001986)
 12:    122.07   0.000088    0.44  0.000224  (-0.014040  0.004930  0.001580)
 13:    130.30   0.000079    0.40  0.000190  (-0.008451 -0.005416 -0.009423)
 14:    160.20   0.000170    0.86  0.000330  (-0.015526  0.000479 -0.009436)
 15:    224.75   0.000619    3.13  0.000860  ( 0.002200  0.023516  0.017386)
 16:    269.90   0.003206   16.20  0.003707  ( 0.039716 -0.019046  0.042035)
 17:    325.95   0.001051    5.31  0.001006  ( 0.029201  0.001089  0.012333)
 18:    342.14   0.001363    6.89  0.001243  ( 0.018979  0.016820  0.024488)
 19:    350.82   0.004013   20.28  0.003570  ( 0.002476 -0.038664  0.045484)
 20:    353.95   0.005977   30.21  0.005270  (-0.001580  0.045095 -0.056867)
 21:    383.75   0.001478    7.47  0.001202  ( 0.027988  0.017927 -0.009868)
 22:    402.02   0.000378    1.91  0.000294  ( 0.012772 -0.010650  0.004131)
 23:    429.98   0.000094    0.48  0.000068  ( 0.004578  0.000377 -0.006883)
 24:    461.04   0.009917   50.11  0.006712  (-0.011689  0.023998 -0.077457)
 25:    481.60   0.018137   91.66  0.011753  ( 0.015739 -0.001060 -0.107256)
 26:    504.35   0.001935    9.78  0.001197  ( 0.014889  0.005610  0.030722)
 27:    540.79   0.004423   22.35  0.002553  (-0.005895 -0.049765  0.006425)
 28:    574.50   0.038464  194.38  0.020893  (-0.050643  0.121923 -0.058852)
 29:    648.88   0.168894  853.52  0.081225  ( 0.057475 -0.232098  0.155088)
 30:    661.64   0.054238  274.10  0.025581  ( 0.053696  0.098606 -0.113908)
 31:    665.27   0.154660  781.59  0.072547  ( 0.030592 -0.175423 -0.202084)
 32:    668.63   0.037915  191.61  0.017696  ( 0.026190 -0.086817 -0.097328)
 33:    685.25   0.023005  116.26  0.010476  ( 0.010629  0.044714 -0.091456)
 34:    693.39   0.004362   22.04  0.001963  ( 0.016777  0.008460 -0.040125)
 35:    710.96   0.087961  444.52  0.038609  (-0.039260  0.067041 -0.180481)
 36:    718.22   0.030810  155.70  0.013387  (-0.000228 -0.098678 -0.060409)
 37:    792.14   0.038170  192.90  0.015037  (-0.106393 -0.052416 -0.031152)
 38:    825.33   0.008576   43.34  0.003243  ( 0.004710  0.049889 -0.027045)
 39:    867.55   0.012008   60.69  0.004320  ( 0.042931 -0.034593  0.035775)
 40:    916.74   0.014107   71.29  0.004802  (-0.019491  0.023936 -0.062042)
 41:    924.61   0.027057  136.74  0.009132  (-0.087302 -0.038319 -0.006482)
 42:   1021.13   0.031044  156.89  0.009487  (-0.093959  0.020775  0.015084)
 43:   1073.93   0.069187  349.64  0.020104  ( 0.052740 -0.123888  0.044439)
 44:   1339.22   0.090450  457.10  0.021077  ( 0.045727 -0.130485  0.044265)
 45:   1422.53   0.124189  627.60  0.027244  (-0.006336  0.081089 -0.143625)
 46:   1586.46   0.082682  417.84  0.016264  ( 0.000693  0.025367 -0.124980)
 47:   1642.08   0.042757  216.08  0.008126  ( 0.001209 -0.076686 -0.047365)
 48:   1787.98   0.289410  1462.56  0.050512  (-0.004797  0.207610  0.085948)
 49:   1795.52   0.198404  1002.65  0.034483  (-0.056699  0.119228 -0.130586)
 50:   1832.13   0.104092  526.04  0.017730  ( 0.056757 -0.008523 -0.120149)
 51:   1873.65   0.004342   21.94  0.000723  ( 0.007729  0.012136  0.022719)
 52:   1874.73   0.001473    7.44  0.000245  ( 0.001970 -0.007787 -0.013442)
 53:   1884.64   0.011325   57.23  0.001875  (-0.000524 -0.027301  0.033609)
 54:   1887.64   0.020622  104.22  0.003409  ( 0.055016  0.015278 -0.012213)
 55:   1891.42   0.011967   60.48  0.001974  (-0.024042 -0.012549  0.035199)
 56:   1894.65   0.032972  166.63  0.005431  ( 0.039160 -0.002611  0.062374)
 57:   1898.81   0.030795  155.62  0.005061  (-0.067916  0.016596 -0.013153)
 58:   1906.67   0.010152   51.31  0.001662  ( 0.028144  0.009541  0.027902)
 59:   1912.10   0.050843  256.94  0.008298  (-0.080063 -0.043351  0.002908)

--------------------------
THERMOCHEMISTRY AT 298.15K
--------------------------

Temperature         ...   298.15 K
Pressure            ...     1.00 atm
Total Mass          ...   150.03 AMU
Quasi RRHO          ...     True
Cut-Off Frequency   ...     1.00 cm^-1

Throughout the following assumptions are being made:
  (1) The electronic state is orbitally nondegenerate
  (2) There are no thermally accessible electronically excited states
  (3) Hindered rotations indicated by low frequency modes are not
      treated as such but are treated as vibrations and this may
      cause some error
  (4) All equations used are the standard statistical mechanics
      equations for an ideal gas
  (5) All vibrations are strictly harmonic

freq.      32.12  E(vib)   ...       0.55
freq.      53.28  E(vib)   ...       0.52
freq.      77.49  E(vib)   ...       0.49
freq.      97.64  E(vib)   ...       0.46
freq.     107.03  E(vib)   ...       0.45
freq.     122.07  E(vib)   ...       0.44
freq.     130.30  E(vib)   ...       0.43
freq.     160.20  E(vib)   ...       0.39
freq.     224.75  E(vib)   ...       0.33
freq.     269.90  E(vib)   ...       0.29
freq.     325.95  E(vib)   ...       0.24
freq.     342.14  E(vib)   ...       0.23
freq.     350.82  E(vib)   ...       0.23
freq.     353.95  E(vib)   ...       0.22
freq.     383.75  E(vib)   ...       0.20
freq.     402.02  E(vib)   ...       0.19
freq.     429.98  E(vib)   ...       0.18
freq.     461.04  E(vib)   ...       0.16
freq.     481.60  E(vib)   ...       0.15
freq.     504.35  E(vib)   ...       0.14
freq.     540.79  E(vib)   ...       0.12
freq.     574.50  E(vib)   ...       0.11
freq.     648.88  E(vib)   ...       0.08
freq.     661.64  E(vib)   ...       0.08
freq.     665.27  E(vib)   ...       0.08
freq.     668.63  E(vib)   ...       0.08
freq.     685.25  E(vib)   ...       0.07
freq.     693.39  E(vib)   ...       0.07
freq.     710.96  E(vib)   ...       0.07
freq.     718.22  E(vib)   ...       0.07
freq.     792.14  E(vib)   ...       0.05
freq.     825.33  E(vib)   ...       0.04
freq.     867.55  E(vib)   ...       0.04
freq.     916.74  E(vib)   ...       0.03
freq.     924.61  E(vib)   ...       0.03
freq.    1021.13  E(vib)   ...       0.02
freq.    1073.93  E(vib)   ...       0.02
freq.    1339.22  E(vib)   ...       0.01
freq.    1422.53  E(vib)   ...       0.00
freq.    1586.46  E(vib)   ...       0.00
freq.    1642.08  E(vib)   ...       0.00
freq.    1787.98  E(vib)   ...       0.00
freq.    1795.52  E(vib)   ...       0.00
freq.    1832.13  E(vib)   ...       0.00
freq.    1873.65  E(vib)   ...       0.00
freq.    1874.73  E(vib)   ...       0.00
freq.    1884.64  E(vib)   ...       0.00
freq.    1887.64  E(vib)   ...       0.00
freq.    1891.42  E(vib)   ...       0.00
freq.    1894.65  E(vib)   ...       0.00
freq.    1898.81  E(vib)   ...       0.00
freq.    1906.67  E(vib)   ...       0.00
freq.    1912.10  E(vib)   ...       0.00

------------
INNER ENERGY
------------

The inner energy is: U= E(el) + E(ZPE) + E(vib) + E(rot) + E(trans)
    E(el)   - is the total energy from the electronic structure calculation
              = E(kin-el) + E(nuc-el) + E(el-el) + E(nuc-nuc)
    E(ZPE)  - the the zero temperature vibrational energy from the frequency calculation
    E(vib)  - the the finite temperature correction to E(ZPE) due to population
              of excited vibrational states
    E(rot)  - is the rotational thermal energy
    E(trans)- is the translational thermal energy

Summary of contributions to the inner energy U:
Electronic energy                ...  -1219.91548477 Eh
Zero point energy                ...      0.10645779 Eh      66.80 kcal/mol
Thermal vibrational correction   ...      0.01176874 Eh       7.38 kcal/mol
Thermal rotational correction    ...      0.00141627 Eh       0.89 kcal/mol
Thermal translational correction ...      0.00141627 Eh       0.89 kcal/mol
-----------------------------------------------------------------------
Total thermal energy                  -1219.79442570 Eh

Summary of corrections to the electronic energy:
(perhaps to be used in another calculation)
Total thermal correction                  0.01460128 Eh       9.16 kcal/mol
Non-thermal (ZPE) correction              0.10645779 Eh      66.80 kcal/mol
-----------------------------------------------------------------------
Total correction                          0.12105907 Eh      75.97 kcal/mol

--------
ENTHALPY
--------

The enthalpy is H = U + kB*T
                kB is Boltzmann's constant
Total thermal energy              ...  -1219.79442570 Eh
Thermal Enthalpy correction       ...      0.00094421 Eh       0.59 kcal/mol
-----------------------------------------------------------------------
Total Enthalpy                    ...  -1219.79348149 Eh

Note: Only C1 symmetry has been detected, increase convergence thresholds
      if your molecule has a higher symmetry. Symmetry factor of 1.0 is
      used for the rotational entropy correction.

Note: Rotational entropy computed according to Herzberg
Infrared and Raman Spectra, Chapter V,1, Van Nostrand Reinhold, 1945
Point Group:  C1, Symmetry Number:   1
Rotational constants in cm-1:     0.043029     0.020141     0.014704

Vibrational entropy computed according to the QRRHO of S. Grimme
Chem.Eur.J. 2012 18 9955 using a reference frequency of 100.0 cm-1

-------
ENTROPY
-------

The entropy contributions are T*S = T*(S(el)+S(vib)+S(rot)+S(trans))
     S(el)   - electronic entropy
     S(vib)  - vibrational entropy
     S(rot)  - rotational entropy
     S(trans)- translational entropy
The entropies will be listed as multiplied by the temperature to get
units of energy

Electronic entropy                ...      0.00000000 Eh      0.00 kcal/mol
Vibrational entropy               ...      0.02068940 Eh     12.98 kcal/mol
Rotational entropy                ...      0.01483151 Eh      9.31 kcal/mol
Translational entropy             ...      0.01944577 Eh     12.20 kcal/mol
-----------------------------------------------------------------------
Final entropy term                ...      0.05496669 Eh     34.49 kcal/mol

In case the symmetry of your molecule has not been determined correctly
or in case you have a reason to use a different symmetry number we print
out the resulting rotational entropy values for sn=1,12:

 non-linear molecules -----------------------------------
|  sn= 1 | S(rot)=       0.01483151 Eh      9.31 kcal/mol|
|  sn= 2 | S(rot)=       0.01417705 Eh      8.90 kcal/mol|
|  sn= 3 | S(rot)=       0.01379422 Eh      8.66 kcal/mol|
|  sn= 4 | S(rot)=       0.01352260 Eh      8.49 kcal/mol|
|  sn= 5 | S(rot)=       0.01331191 Eh      8.35 kcal/mol|
|  sn= 6 | S(rot)=       0.01313977 Eh      8.25 kcal/mol|
|  sn= 7 | S(rot)=       0.01299422 Eh      8.15 kcal/mol|

                             ****ORCA TERMINATED NORMALLY****
TOTAL RUN TIME: 0 days 0 hours 4 minutes 15 seconds 707 msec
