                         Program Version 6.1.0  -  RELEASE   -
|  1> # Geometry optimization for (AlH3)n cluster
|  2>
|  3> %pal nprocs 24  end
|  4>
|  5> %geom MaxIter 500 end
|  6>
|  7> %cpcm
|  8> 	epsilon 1.95778548766667
|  9> end
| 10>
| 11> ! PBE def2-TZVP
| 12> ! RKS	# closed shell for AlH3
| 13> ! D3    #  dispersion correction
| 14> ! Freq 	# Frequency analysis to check the stabiltity of the structures
| 15>
| 16> ! NoPop # population analysis not necessary
| 17>
| 18> ! DEFGRID3
| 19> ! TightSCF
| 20> ! TightOpt
| 21>
| 22> ! SmallPrint
| 23>
| 24>
| 25> * xyzFile 0 1 start.xyz # only maingroup elements H and Al so there should be no net spin
| 26>
| 27>                          ****END OF INPUT****
 Total Charge           Charge          ....    0
 Multiplicity           Mult            ....    1
 Number of Electrons    NEL             ....   80
Dispersion correction           -0.019646417
FINAL SINGLE POINT ENERGY     -1220.447384469452
Dispersion correction             ... done (  0.1 sec)
Dispersion correction           -0.019646154
FINAL SINGLE POINT ENERGY     -1220.447397222184
Dispersion correction             ... done (  0.1 sec)
Dispersion correction           -0.019641127
FINAL SINGLE POINT ENERGY     -1220.447433651934
Dispersion correction             ... done (  0.1 sec)
FINAL SINGLE POINT ENERGY     -1220.447437553103
FINAL SINGLE POINT ENERGY     -1220.447450124859
FINAL SINGLE POINT ENERGY     -1220.447453004453
FINAL SINGLE POINT ENERGY     -1220.447458787693
FINAL SINGLE POINT ENERGY     -1220.447464243374
FINAL SINGLE POINT ENERGY     -1220.447469747663
FINAL SINGLE POINT ENERGY     -1220.447473348451
FINAL SINGLE POINT ENERGY     -1220.447493411358
FINAL SINGLE POINT ENERGY     -1220.447493828310
FINAL SINGLE POINT ENERGY     -1220.447494223023
FINAL SINGLE POINT ENERGY     -1220.447494516667
FINAL SINGLE POINT ENERGY     -1220.447494709295
FINAL SINGLE POINT ENERGY     -1220.447494877582
FINAL SINGLE POINT ENERGY     -1220.447495042683
Dispersion correction             ... done (  0.1 sec)
Dispersion correction           -0.019462397
FINAL SINGLE POINT ENERGY     -1220.447495165972
Dispersion correction             ... done (  0.1 sec)
Dispersion correction           -0.019462997
FINAL SINGLE POINT ENERGY     -1220.447495237100
Dispersion correction             ... done (  0.1 sec)
                    ***********************HURRAY********************

CARTESIAN COORDINATES (ANGSTROEM)
---------------------------------
  Al    -0.530759    0.995130    2.889553
  Al     0.116288   -0.468602    0.408906
  H     -0.449108   -2.092936    0.309207
  H     -0.193938    0.206323   -0.990808
  H     -1.046607   -0.000737    1.567110
  H     -1.877370    1.234568    3.702714
  H      0.418946   -0.102693    3.735921
  H      1.509150   -0.551896    1.187911
  Al     0.074155   -3.299835    1.418729
  H     -0.031187   -2.215166    2.740767
  H     -1.152498   -4.291455    1.596417
  H      0.402632    2.111857    2.238247
  Al     1.179895   -1.698317    3.805837
  H      0.477934   -1.777720    5.383314
  H      2.691882   -1.331159    3.542200
  H      1.599012   -3.657327    1.159333
  Al     0.693062   -3.496986    5.686592
  H      1.777257   -3.615287    6.842245
  H      1.424412   -3.515825    4.158293
  H     -0.756949   -4.146955    5.627501

 Multiplicity           Mult            ....    1
 Number of Electrons    NEL             ....   80
 Basis Dimension        Dim             ....  275

ORBITAL ENERGIES
----------------

  NO   OCC          E(Eh)            E(eV)
   0   2.0000     -55.399827     -1507.5059
   1   2.0000     -55.381427     -1507.0052
   2   2.0000     -55.380409     -1506.9775
   3   2.0000     -55.372672     -1506.7670
   4   2.0000     -55.364380     -1506.5414
   5   2.0000      -3.956808      -107.6702
   6   2.0000      -3.941586      -107.2560
   7   2.0000      -3.940816      -107.2351
   8   2.0000      -3.932999      -107.0223
   9   2.0000      -3.925792      -106.8262
  10   2.0000      -2.560754       -69.6817
  11   2.0000      -2.559776       -69.6550
  12   2.0000      -2.555533       -69.5396
  13   2.0000      -2.546979       -69.3068
  14   2.0000      -2.545631       -69.2701
  15   2.0000      -2.544272       -69.2332
  16   2.0000      -2.543674       -69.2169
  17   2.0000      -2.538901       -69.0870
  18   2.0000      -2.538514       -69.0765
  19   2.0000      -2.537975       -69.0618
  20   2.0000      -2.535654       -68.9987
  21   2.0000      -2.531428       -68.8837
  22   2.0000      -2.530749       -68.8652
  23   2.0000      -2.527726       -68.7829
  24   2.0000      -2.523565       -68.6697
  25   2.0000      -0.493235       -13.4216
  26   2.0000      -0.452481       -12.3126
  27   2.0000      -0.421822       -11.4784
  28   2.0000      -0.388549       -10.5730
  29   2.0000      -0.345362        -9.3978
  30   2.0000      -0.337893        -9.1945
  31   2.0000      -0.314212        -8.5502
  32   2.0000      -0.307699        -8.3729
  33   2.0000      -0.296660        -8.0725
  34   2.0000      -0.291607        -7.9350
  35   2.0000      -0.283990        -7.7278
  36   2.0000      -0.275858        -7.5065
  37   2.0000      -0.270725        -7.3668
  38   2.0000      -0.267627        -7.2825
  39   2.0000      -0.262771        -7.1504
  40   0.0000      -0.068638        -1.8677
  41   0.0000      -0.057884        -1.5751
  42   0.0000      -0.051218        -1.3937
  43   0.0000      -0.039253        -1.0681
  44   0.0000      -0.032215        -0.8766

-------
TIMINGS
-------

Dispersion correction           -0.019463165
FINAL SINGLE POINT ENERGY     -1220.447495285694

DIPOLE MOMENT
-------------

Method             : SCF
Type of density    : Electron Density
Multiplicity       :   1
Irrep              :   0
Energy             : -1220.4280321207620545 Eh
Basis              : AO
                                X                 Y                 Z
Electronic contribution:     -0.475001052      -0.231477676      -0.439161766
Nuclear contribution   :      0.170996997       0.139337481       0.149914213
                        -----------------------------------------
Total Dipole Moment    :     -0.304004055      -0.092140195      -0.289247554
                        -----------------------------------------
Magnitude (a.u.)       :      0.429618934
Magnitude (Debye)      :      1.092004547

VIBRATIONAL FREQUENCIES
-----------------------

Scaling factor for frequencies =  1.000000000  (already applied!)

     0:       0.00 cm**-1
     1:       0.00 cm**-1
     2:       0.00 cm**-1
     3:       0.00 cm**-1
     4:       0.00 cm**-1
     5:       0.00 cm**-1
     6:      41.92 cm**-1
     7:      48.03 cm**-1
     8:      66.29 cm**-1
     9:      94.10 cm**-1
    10:     110.25 cm**-1
    11:     129.09 cm**-1
    12:     182.12 cm**-1
    13:     193.50 cm**-1
    14:     210.33 cm**-1
    15:     233.87 cm**-1
    16:     280.46 cm**-1
    17:     297.43 cm**-1
    18:     335.58 cm**-1
    19:     345.70 cm**-1
    20:     369.60 cm**-1
    21:     387.48 cm**-1
    22:     422.35 cm**-1
    23:     427.88 cm**-1
    24:     474.07 cm**-1
    25:     487.36 cm**-1
    26:     518.73 cm**-1
    27:     542.74 cm**-1
    28:     556.73 cm**-1
    29:     630.20 cm**-1
    30:     652.28 cm**-1
    31:     656.12 cm**-1
    32:     663.99 cm**-1
    33:     683.18 cm**-1
    34:     701.27 cm**-1
    35:     712.23 cm**-1
    36:     721.94 cm**-1
    37:     738.36 cm**-1
    38:     812.78 cm**-1
    39:     824.82 cm**-1
    40:    1028.51 cm**-1
    41:    1084.07 cm**-1
    42:    1125.76 cm**-1
    43:    1157.16 cm**-1
    44:    1375.87 cm**-1
    45:    1422.84 cm**-1
    46:    1571.68 cm**-1
    47:    1644.46 cm**-1
    48:    1707.54 cm**-1
    49:    1768.34 cm**-1
    50:    1851.12 cm**-1
    51:    1863.17 cm**-1
    52:    1879.27 cm**-1
    53:    1885.49 cm**-1
    54:    1889.34 cm**-1
    55:    1898.57 cm**-1
    56:    1900.61 cm**-1
    57:    1908.13 cm**-1
    58:    1913.08 cm**-1
    59:    1934.45 cm**-1

IR SPECTRUM
-----------

 Mode   freq       eps      Int      T**2         TX        TY        TZ
       cm**-1   L/(mol*cm) km/mol    a.u.
----------------------------------------------------------------------------
  6:     41.92   0.000464    2.35  0.003457  ( 0.034616 -0.031332  0.035730)
  7:     48.03   0.000147    0.74  0.000958  ( 0.018051  0.002269  0.025035)
  8:     66.29   0.000278    1.41  0.001310  (-0.029987  0.000977  0.020252)
  9:     94.10   0.001271    6.42  0.004213  (-0.018853  0.039727 -0.047746)
 10:    110.25   0.001212    6.13  0.003431  (-0.030577  0.000664 -0.049958)
 11:    129.09   0.000387    1.96  0.000936  (-0.012531 -0.013952 -0.024166)
 12:    182.12   0.000193    0.98  0.000331  ( 0.013073  0.009171 -0.008715)
 13:    193.50   0.001201    6.07  0.001937  ( 0.023762 -0.034456  0.013597)
 14:    210.33   0.001320    6.67  0.001958  (-0.003107 -0.014288 -0.041769)
 15:    233.87   0.000336    1.70  0.000448  (-0.009323  0.001818 -0.018914)
 16:    280.46   0.006193   31.30  0.006891  (-0.014788  0.022549 -0.078508)
 17:    297.43   0.002013   10.17  0.002112  (-0.028463 -0.030217 -0.019728)
 18:    335.58   0.002715   13.72  0.002525  ( 0.030078 -0.038338  0.012256)
 19:    345.70   0.005194   26.25  0.004688  (-0.008858 -0.033297  0.059171)
 20:    369.60   0.010932   55.24  0.009230  ( 0.063334 -0.036225  0.062500)
 21:    387.48   0.002149   10.86  0.001731  (-0.019168  0.028832 -0.023073)
 22:    422.35   0.001178    5.95  0.000871  (-0.003520  0.018682  0.022564)
 23:    427.88   0.000970    4.90  0.000707  ( 0.013397  0.016914  0.015542)
 24:    474.07   0.002460   12.43  0.001620  ( 0.025078  0.021117  0.023342)
 25:    487.36   0.037712  190.58  0.024148  ( 0.012510  0.023644 -0.153075)
 26:    518.73   0.043649  220.59  0.026259  (-0.020088 -0.132334 -0.091341)
 27:    542.74   0.028621  144.64  0.016457  ( 0.064058 -0.070340  0.086054)
 28:    556.73   0.064687  326.90  0.036259  (-0.063748  0.179237 -0.008358)
 29:    630.20   0.204231  1032.10  0.101131  (-0.014236  0.216242 -0.232739)
 30:    652.28   0.193423  977.48  0.092537  ( 0.054241 -0.264465 -0.140191)
 31:    656.12   0.045409  229.48  0.021597  ( 0.009813  0.059577 -0.133983)
 32:    663.99   0.038612  195.13  0.018147  ( 0.089796 -0.040825 -0.091744)
 33:    683.18   0.034864  176.19  0.015925  (-0.051614 -0.092136  0.069081)
 34:    701.27   0.023280  117.65  0.010360  (-0.099891 -0.017251  0.009148)
 35:    712.23   0.048136  243.26  0.021091  (-0.010321 -0.051437  0.135419)
 36:    721.94   0.029124  147.18  0.012589  (-0.002277 -0.111349  0.013604)
 37:    738.36   0.035473  179.27  0.014992  (-0.047888  0.001726 -0.112678)
 38:    812.78   0.033806  170.84  0.012980  ( 0.103859  0.030788  0.035284)
 39:    824.82   0.036994  186.95  0.013996  ( 0.040237  0.049418  0.099675)
 40:   1028.51   0.062394  315.31  0.018931  ( 0.084068 -0.101543  0.039404)
 41:   1084.07   0.052102  263.30  0.014998  (-0.006392  0.122119 -0.006642)
 42:   1125.76   0.025023  126.45  0.006936  ( 0.035554  0.022413  0.071902)
 43:   1157.16   0.032524  164.36  0.008771  ( 0.081295  0.031519  0.034187)
 44:   1375.87   0.042624  215.40  0.009668  (-0.037995  0.088780  0.018494)
 45:   1422.84   0.200645  1013.98  0.044006  (-0.005230 -0.126176  0.167507)
 46:   1571.68   0.077994  394.15  0.015486  (-0.017865 -0.053209  0.111066)
 47:   1644.46   0.101418  512.52  0.019246  (-0.024241  0.130348  0.040835)
 48:   1707.54   0.111753  564.75  0.020424  ( 0.023602  0.052409 -0.130843)
 49:   1768.34   0.281917  1424.69  0.049751  ( 0.035699 -0.206828 -0.075489)
 50:   1851.12   0.054878  277.33  0.009251  (-0.058434  0.044215 -0.062304)
 51:   1863.17   0.067642  341.83  0.011329  (-0.058364  0.035001 -0.081841)
 52:   1879.27   0.046073  232.83  0.007651  ( 0.086954  0.000858  0.009427)
 53:   1885.49   0.031203  157.69  0.005164  ( 0.056456  0.034756 -0.027732)
 54:   1889.34   0.012753   64.45  0.002106  (-0.010643 -0.006720  0.044136)
 55:   1898.57   0.027839  140.68  0.004576  ( 0.054224  0.016732  0.036818)
 56:   1900.61   0.050843  256.94  0.008348  (-0.063062  0.031197 -0.058292)
 57:   1908.13   0.048670  245.96  0.007960  (-0.086510 -0.016435  0.014337)
 58:   1913.08   0.032286  163.16  0.005266  (-0.028156  0.024401 -0.062276)
 59:   1934.45   0.025152  127.11  0.004057  ( 0.032280  0.046657 -0.028958)

--------------------------
THERMOCHEMISTRY AT 298.15K
--------------------------

Temperature         ...   298.15 K
Pressure            ...     1.00 atm
Total Mass          ...   150.03 AMU
Quasi RRHO          ...     True
Cut-Off Frequency   ...     1.00 cm^-1

Throughout the following assumptions are being made:
  (1) The electronic state is orbitally nondegenerate
  (2) There are no thermally accessible electronically excited states
  (3) Hindered rotations indicated by low frequency modes are not
      treated as such but are treated as vibrations and this may
      cause some error
  (4) All equations used are the standard statistical mechanics
      equations for an ideal gas
  (5) All vibrations are strictly harmonic

freq.      41.92  E(vib)   ...       0.53
freq.      48.03  E(vib)   ...       0.53
freq.      66.29  E(vib)   ...       0.50
freq.      94.10  E(vib)   ...       0.47
freq.     110.25  E(vib)   ...       0.45
freq.     129.09  E(vib)   ...       0.43
freq.     182.12  E(vib)   ...       0.37
freq.     193.50  E(vib)   ...       0.36
freq.     210.33  E(vib)   ...       0.34
freq.     233.87  E(vib)   ...       0.32
freq.     280.46  E(vib)   ...       0.28
freq.     297.43  E(vib)   ...       0.27
freq.     335.58  E(vib)   ...       0.24
freq.     345.70  E(vib)   ...       0.23
freq.     369.60  E(vib)   ...       0.21
freq.     387.48  E(vib)   ...       0.20
freq.     422.35  E(vib)   ...       0.18
freq.     427.88  E(vib)   ...       0.18
freq.     474.07  E(vib)   ...       0.15
freq.     487.36  E(vib)   ...       0.15
freq.     518.73  E(vib)   ...       0.13
freq.     542.74  E(vib)   ...       0.12
freq.     556.73  E(vib)   ...       0.12
freq.     630.20  E(vib)   ...       0.09
freq.     652.28  E(vib)   ...       0.08
freq.     656.12  E(vib)   ...       0.08
freq.     663.99  E(vib)   ...       0.08
freq.     683.18  E(vib)   ...       0.08
freq.     701.27  E(vib)   ...       0.07
freq.     712.23  E(vib)   ...       0.07
freq.     721.94  E(vib)   ...       0.07
freq.     738.36  E(vib)   ...       0.06
freq.     812.78  E(vib)   ...       0.05
freq.     824.82  E(vib)   ...       0.04
freq.    1028.51  E(vib)   ...       0.02
freq.    1084.07  E(vib)   ...       0.02
freq.    1125.76  E(vib)   ...       0.01
freq.    1157.16  E(vib)   ...       0.01
freq.    1375.87  E(vib)   ...       0.01
freq.    1422.84  E(vib)   ...       0.00
freq.    1571.68  E(vib)   ...       0.00
freq.    1644.46  E(vib)   ...       0.00
freq.    1707.54  E(vib)   ...       0.00
freq.    1768.34  E(vib)   ...       0.00
freq.    1851.12  E(vib)   ...       0.00
freq.    1863.17  E(vib)   ...       0.00
freq.    1879.27  E(vib)   ...       0.00
freq.    1885.49  E(vib)   ...       0.00
freq.    1889.34  E(vib)   ...       0.00
freq.    1898.57  E(vib)   ...       0.00
freq.    1900.61  E(vib)   ...       0.00
freq.    1908.13  E(vib)   ...       0.00
freq.    1913.08  E(vib)   ...       0.00
freq.    1934.45  E(vib)   ...       0.00

------------
INNER ENERGY
------------

The inner energy is: U= E(el) + E(ZPE) + E(vib) + E(rot) + E(trans)
    E(el)   - is the total energy from the electronic structure calculation
              = E(kin-el) + E(nuc-el) + E(el-el) + E(nuc-nuc)
    E(ZPE)  - the the zero temperature vibrational energy from the frequency calculation
    E(vib)  - the the finite temperature correction to E(ZPE) due to population
              of excited vibrational states
    E(rot)  - is the rotational thermal energy
    E(trans)- is the translational thermal energy

Summary of contributions to the inner energy U:
Electronic energy                ...  -1220.44749529 Eh
Zero point energy                ...      0.10789913 Eh      67.71 kcal/mol
Thermal vibrational correction   ...      0.01212382 Eh       7.61 kcal/mol
Thermal rotational correction    ...      0.00141627 Eh       0.89 kcal/mol
Thermal translational correction ...      0.00141627 Eh       0.89 kcal/mol
-----------------------------------------------------------------------
Total thermal energy                  -1220.32463980 Eh

Summary of corrections to the electronic energy:
(perhaps to be used in another calculation)
Total thermal correction                  0.01495636 Eh       9.39 kcal/mol
Non-thermal (ZPE) correction              0.10789913 Eh      67.71 kcal/mol
-----------------------------------------------------------------------
Total correction                          0.12285549 Eh      77.09 kcal/mol

--------
ENTHALPY
--------

The enthalpy is H = U + kB*T
                kB is Boltzmann's constant
Total thermal energy              ...  -1220.32463980 Eh
Thermal Enthalpy correction       ...      0.00094421 Eh       0.59 kcal/mol
-----------------------------------------------------------------------
Total Enthalpy                    ...  -1220.32369559 Eh

Note: Only C1 symmetry has been detected, increase convergence thresholds
      if your molecule has a higher symmetry. Symmetry factor of 1.0 is
      used for the rotational entropy correction.

Note: Rotational entropy computed according to Herzberg
Infrared and Raman Spectra, Chapter V,1, Van Nostrand Reinhold, 1945
Point Group:  C1, Symmetry Number:   1
Rotational constants in cm-1:     0.047240     0.023052     0.016955

Vibrational entropy computed according to the QRRHO of S. Grimme
Chem.Eur.J. 2012 18 9955 using a reference frequency of 100.0 cm-1

-------
ENTROPY
-------

The entropy contributions are T*S = T*(S(el)+S(vib)+S(rot)+S(trans))
     S(el)   - electronic entropy
     S(vib)  - vibrational entropy
     S(rot)  - rotational entropy
     S(trans)- translational entropy
The entropies will be listed as multiplied by the temperature to get
units of energy

Electronic entropy                ...      0.00000000 Eh      0.00 kcal/mol
Vibrational entropy               ...      0.02109938 Eh     13.24 kcal/mol
Rotational entropy                ...      0.01465646 Eh      9.20 kcal/mol
Translational entropy             ...      0.01944577 Eh     12.20 kcal/mol
-----------------------------------------------------------------------
Final entropy term                ...      0.05520161 Eh     34.64 kcal/mol

In case the symmetry of your molecule has not been determined correctly
or in case you have a reason to use a different symmetry number we print
out the resulting rotational entropy values for sn=1,12:

 non-linear molecules -----------------------------------
|  sn= 1 | S(rot)=       0.01465646 Eh      9.20 kcal/mol|
|  sn= 2 | S(rot)=       0.01400200 Eh      8.79 kcal/mol|
|  sn= 3 | S(rot)=       0.01361917 Eh      8.55 kcal/mol|
|  sn= 4 | S(rot)=       0.01334754 Eh      8.38 kcal/mol|
|  sn= 5 | S(rot)=       0.01313686 Eh      8.24 kcal/mol|
|  sn= 6 | S(rot)=       0.01296471 Eh      8.14 kcal/mol|

                             ****ORCA TERMINATED NORMALLY****
TOTAL RUN TIME: 0 days 0 hours 16 minutes 17 seconds 605 msec
