                         Program Version 6.1.0  -  RELEASE   -
|  1> # Geometry optimization for (AlH3)n cluster
|  2>
|  3> %pal nprocs 24  end
|  4>
|  5> %geom MaxIter 500 end
|  6>
|  7>
|  8> ! PBE def2-SV(P)
|  9> ! RKS	# closed shell for AlH3
| 10> ! D3    #  dispersion correction
| 11> ! gCP(DFT/SV(P))
| 12> ! Freq 	# Frequency analysis to check the stabiltity of the structures
| 13>
| 14> ! NoPop # population analysis not necessary
| 15>
| 16> ! RI
| 17> ! DEFGRID2
| 18> ! NormalSCF
| 19> ! SloppyOpt
| 20>
| 21> ! SmallPrint
| 22>
| 23>
| 24> * xyzFile 0 1 start.xyz # only maingroup elements H and Al so there should be no net spin
| 25>
| 26>                          ****END OF INPUT****
 Total Charge           Charge          ....    0
 Multiplicity           Mult            ....    1
 Number of Electrons    NEL             ....   64
Dispersion correction           -0.014009989
FINAL SINGLE POINT ENERGY      -975.274306126235
Dispersion correction             ... done (  0.1 sec)
Dispersion correction           -0.013912262
FINAL SINGLE POINT ENERGY      -975.455762419370
Dispersion correction             ... done (  0.1 sec)
Dispersion correction           -0.013772699
FINAL SINGLE POINT ENERGY      -975.613638096817
Dispersion correction             ... done (  0.1 sec)
FINAL SINGLE POINT ENERGY      -975.712178603797
FINAL SINGLE POINT ENERGY      -975.794276288924
FINAL SINGLE POINT ENERGY      -975.850969113785
FINAL SINGLE POINT ENERGY      -975.883580774789
FINAL SINGLE POINT ENERGY      -975.897269853996
FINAL SINGLE POINT ENERGY      -975.903891895290
FINAL SINGLE POINT ENERGY      -975.912482650969
FINAL SINGLE POINT ENERGY      -975.919921892124
FINAL SINGLE POINT ENERGY      -975.923653111274
FINAL SINGLE POINT ENERGY      -975.925491219086
FINAL SINGLE POINT ENERGY      -975.926490089757
Dispersion correction             ... done (  0.1 sec)
Dispersion correction           -0.013002398
FINAL SINGLE POINT ENERGY      -975.927196093124
Dispersion correction             ... done (  0.1 sec)
Dispersion correction           -0.013001325
FINAL SINGLE POINT ENERGY      -975.927739955871
Dispersion correction             ... done (  0.1 sec)
                    ***********************HURRAY********************

CARTESIAN COORDINATES (ANGSTROEM)
---------------------------------
  Al    -0.068512    1.291660    2.813719
  Al     0.372065   -0.297907   -0.175029
  H     -0.185855   -1.764361    0.597084
  H     -0.893232    0.155344   -1.061477
  H      0.353213    0.676658    1.245373
  H     -1.458709    2.093027    2.645506
  H     -0.524194   -0.237573    3.483821
  H      1.900626   -0.468790   -0.643942
  Al     0.580275   -3.057517    1.461904
  H     -0.176326   -2.686685    3.003556
  H     -0.198416   -4.411693    1.078885
  H      1.322557    1.777353    3.477997
  Al     0.232194   -1.589985    4.292368
  H     -0.775465   -1.946581    5.491686
  H      1.822570   -1.351462    4.390232
  H      2.150469   -2.776288    1.612547

 Multiplicity           Mult            ....    1
 Number of Electrons    NEL             ....   64
 Basis Dimension        Dim             ....   96

ORBITAL ENERGIES
----------------

  NO   OCC          E(Eh)            E(eV)
   0   2.0000     -55.400117     -1507.5138
   1   2.0000     -55.399649     -1507.5011
   2   2.0000     -55.398464     -1507.4689
   3   2.0000     -55.396467     -1507.4145
   4   2.0000      -3.955591      -107.6371
   5   2.0000      -3.954803      -107.6157
   6   2.0000      -3.954542      -107.6086
   7   2.0000      -3.952288      -107.5472
   8   2.0000      -2.564439       -69.7819
   9   2.0000      -2.563674       -69.7611
  10   2.0000      -2.563357       -69.7525
  11   2.0000      -2.562208       -69.7212
  12   2.0000      -2.561509       -69.7022
  13   2.0000      -2.561245       -69.6950
  14   2.0000      -2.561190       -69.6935
  15   2.0000      -2.558618       -69.6235
  16   2.0000      -2.556295       -69.5603
  17   2.0000      -2.555465       -69.5377
  18   2.0000      -2.555191       -69.5303
  19   2.0000      -2.553134       -69.4743
  20   2.0000      -0.473136       -12.8747
  21   2.0000      -0.425817       -11.5871
  22   2.0000      -0.423846       -11.5334
  23   2.0000      -0.350747        -9.5443
  24   2.0000      -0.338783        -9.2187
  25   2.0000      -0.303971        -8.2715
  26   2.0000      -0.299727        -8.1560
  27   2.0000      -0.297422        -8.0933
  28   2.0000      -0.288529        -7.8513
  29   2.0000      -0.280771        -7.6402
  30   2.0000      -0.278098        -7.5674
  31   2.0000      -0.267657        -7.2833
  32   0.0000      -0.072394        -1.9699
  33   0.0000      -0.069352        -1.8872
  34   0.0000      -0.060126        -1.6361
  35   0.0000      -0.043330        -1.1791
  36   0.0000      -0.027276        -0.7422

-------
TIMINGS
-------

Dispersion correction           -0.012995431
FINAL SINGLE POINT ENERGY      -975.928007328259

DIPOLE MOMENT
-------------

Method             : SCF
Type of density    : Electron Density
Multiplicity       :   1
Irrep              :   0
Energy             :  -975.9664256731032310 Eh
Basis              : AO
                                X                 Y                 Z
Electronic contribution:     -0.123794445      -0.083739630      -0.214636111
Nuclear contribution   :     -0.009463601       0.017649609       0.124441898
                        -----------------------------------------
Total Dipole Moment    :     -0.133258046      -0.066090021      -0.090194214
                        -----------------------------------------
Magnitude (a.u.)       :      0.173955724
Magnitude (Debye)      :      0.442160312

VIBRATIONAL FREQUENCIES
-----------------------

Scaling factor for frequencies =  1.000000000  (already applied!)

     0:       0.00 cm**-1
     1:       0.00 cm**-1
     2:       0.00 cm**-1
     3:       0.00 cm**-1
     4:       0.00 cm**-1
     5:       0.00 cm**-1
     6:     -88.89 cm**-1  ***imaginary mode***
     7:     -59.08 cm**-1  ***imaginary mode***
     8:      78.62 cm**-1
     9:      94.41 cm**-1
    10:     121.82 cm**-1
    11:     143.17 cm**-1
    12:     168.51 cm**-1
    13:     285.02 cm**-1
    14:     306.06 cm**-1
    15:     345.98 cm**-1
    16:     364.10 cm**-1
    17:     383.04 cm**-1
    18:     411.31 cm**-1
    19:     422.79 cm**-1
    20:     430.90 cm**-1
    21:     482.14 cm**-1
    22:     506.70 cm**-1
    23:     527.53 cm**-1
    24:     645.88 cm**-1
    25:     661.39 cm**-1
    26:     663.98 cm**-1
    27:     691.56 cm**-1
    28:     706.40 cm**-1
    29:     712.95 cm**-1
    30:     730.60 cm**-1
    31:     735.79 cm**-1
    32:     787.22 cm**-1
    33:     948.44 cm**-1
    34:     980.90 cm**-1
    35:    1003.27 cm**-1
    36:    1695.00 cm**-1
    37:    1788.08 cm**-1
    38:    1811.98 cm**-1
    39:    1857.77 cm**-1
    40:    1887.02 cm**-1
    41:    1890.13 cm**-1
    42:    1896.35 cm**-1
    43:    1902.74 cm**-1
    44:    1912.93 cm**-1
    45:    1915.20 cm**-1
    46:    1935.71 cm**-1
    47:    1943.76 cm**-1

IR SPECTRUM
-----------

 Mode   freq       eps      Int      T**2         TX        TY        TZ
       cm**-1   L/(mol*cm) km/mol    a.u.
----------------------------------------------------------------------------
  8:     78.62   0.000228    1.15  0.000907  ( 0.028346 -0.002347  0.009888)
  9:     94.41   0.000039    0.20  0.000130  ( 0.011010 -0.000912 -0.002768)
 10:    121.82   0.000110    0.56  0.000282  ( 0.013538  0.009663 -0.002284)
 11:    143.17   0.000019    0.10  0.000042  (-0.001987  0.003131  0.005333)
 12:    168.51   0.000085    0.43  0.000158  (-0.007930  0.006734 -0.007036)
 13:    285.02   0.000798    4.03  0.000874  (-0.019211 -0.022011  0.004519)
 14:    306.06   0.000595    3.01  0.000607  (-0.002784 -0.018763 -0.015717)
 15:    345.98   0.003885   19.63  0.003504  ( 0.048458  0.033353 -0.006595)
 16:    364.10   0.000623    3.15  0.000534  (-0.020390  0.008087 -0.007288)
 17:    383.04   0.000307    1.55  0.000250  ( 0.000419 -0.001363 -0.015739)
 18:    411.31   0.000496    2.50  0.000376  ( 0.008155  0.013777  0.010938)
 19:    422.79   0.000114    0.58  0.000084  (-0.005385 -0.004411  0.005985)
 20:    430.90   0.000038    0.19  0.000028  (-0.002413 -0.004350 -0.001751)
 21:    482.14   0.000540    2.73  0.000350  (-0.006599 -0.016358  0.006217)
 22:    506.70   0.008557   43.24  0.005270  (-0.004975 -0.069340  0.020914)
 23:    527.53   0.010456   52.84  0.006185  ( 0.012528 -0.025044 -0.073493)
 24:    645.88   0.013903   70.26  0.006717  ( 0.024590 -0.075502 -0.020304)
 25:    661.39   0.170195  860.10  0.080304  (-0.057153  0.255856 -0.107586)
 26:    663.98   0.206073  1041.41  0.096851  (-0.032155  0.096168  0.294226)
 27:    691.56   0.015225   76.94  0.006870  (-0.055178 -0.045344 -0.042064)
 28:    706.40   0.061348  310.03  0.027101  (-0.031809  0.117739  0.110577)
 29:    712.95   0.071271  360.18  0.031196  ( 0.012322 -0.140315  0.106564)
 30:    730.60   0.002909   14.70  0.001242  (-0.004480  0.032347 -0.013267)
 31:    735.79   0.017498   88.43  0.007421  (-0.057647 -0.047663  0.042737)
 32:    787.22   0.009676   48.90  0.003836  ( 0.055787  0.026849 -0.001693)
 33:    948.44   0.011974   60.51  0.003940  ( 0.059308 -0.001419  0.020498)
 34:    980.90   0.004879   24.66  0.001552  (-0.036712  0.008957 -0.011143)
 35:   1003.27   0.044679  225.79  0.013897  (-0.110778 -0.038610  0.011607)
 36:   1695.00   0.055151  278.71  0.010154  ( 0.009779 -0.038542 -0.092589)
 37:   1788.08   0.176249  890.69  0.030760  (-0.022806  0.170971  0.031755)
 38:   1811.98   0.264635  1337.36  0.045576  ( 0.010124 -0.143858  0.157411)
 39:   1857.77   0.102743  519.22  0.017259  ( 0.002309 -0.046353 -0.122901)
 40:   1887.02   0.018869   95.36  0.003120  ( 0.029493 -0.036185 -0.030679)
 41:   1890.13   0.006057   30.61  0.001000  ( 0.012274 -0.001894  0.029081)
 42:   1896.35   0.020414  103.16  0.003359  ( 0.056081  0.012764  0.007163)
 43:   1902.74   0.004522   22.85  0.000742  ( 0.019420  0.018998  0.001895)
 44:   1912.93   0.022827  115.36  0.003724  ( 0.056196 -0.023778 -0.000714)
 45:   1915.20   0.017012   85.97  0.002772  (-0.049501 -0.003206  0.017642)
 46:   1935.71   0.037849  191.27  0.006102  (-0.075456 -0.019122  0.006522)
 47:   1943.76   0.132891  671.58  0.021335  (-0.013742  0.076473  0.123686)

--------------------------
THERMOCHEMISTRY AT 298.15K
--------------------------

Temperature         ...   298.15 K
Pressure            ...     1.00 atm
Total Mass          ...   120.02 AMU
Quasi RRHO          ...     True
Cut-Off Frequency   ...     1.00 cm^-1

Throughout the following assumptions are being made:
  (1) The electronic state is orbitally nondegenerate
  (2) There are no thermally accessible electronically excited states
  (3) Hindered rotations indicated by low frequency modes are not
      treated as such but are treated as vibrations and this may
      cause some error
  (4) All equations used are the standard statistical mechanics
      equations for an ideal gas
  (5) All vibrations are strictly harmonic

freq.      78.62  E(vib)   ...       0.49
freq.      94.41  E(vib)   ...       0.47
freq.     121.82  E(vib)   ...       0.44
freq.     143.17  E(vib)   ...       0.41
freq.     168.51  E(vib)   ...       0.38
freq.     285.02  E(vib)   ...       0.28
freq.     306.06  E(vib)   ...       0.26
freq.     345.98  E(vib)   ...       0.23
freq.     364.10  E(vib)   ...       0.22
freq.     383.04  E(vib)   ...       0.20
freq.     411.31  E(vib)   ...       0.19
freq.     422.79  E(vib)   ...       0.18
freq.     430.90  E(vib)   ...       0.18
freq.     482.14  E(vib)   ...       0.15
freq.     506.70  E(vib)   ...       0.14
freq.     527.53  E(vib)   ...       0.13
freq.     645.88  E(vib)   ...       0.09
freq.     661.39  E(vib)   ...       0.08
freq.     663.98  E(vib)   ...       0.08
freq.     691.56  E(vib)   ...       0.07
freq.     706.40  E(vib)   ...       0.07
freq.     712.95  E(vib)   ...       0.07
freq.     730.60  E(vib)   ...       0.06
freq.     735.79  E(vib)   ...       0.06
freq.     787.22  E(vib)   ...       0.05
freq.     948.44  E(vib)   ...       0.03
freq.     980.90  E(vib)   ...       0.02
freq.    1003.27  E(vib)   ...       0.02
freq.    1695.00  E(vib)   ...       0.00
freq.    1788.08  E(vib)   ...       0.00
freq.    1811.98  E(vib)   ...       0.00
freq.    1857.77  E(vib)   ...       0.00
freq.    1887.02  E(vib)   ...       0.00
freq.    1890.13  E(vib)   ...       0.00
freq.    1896.35  E(vib)   ...       0.00
freq.    1902.74  E(vib)   ...       0.00
freq.    1912.93  E(vib)   ...       0.00
freq.    1915.20  E(vib)   ...       0.00
freq.    1935.71  E(vib)   ...       0.00
freq.    1943.76  E(vib)   ...       0.00

------------
INNER ENERGY
------------

The inner energy is: U= E(el) + E(ZPE) + E(vib) + E(rot) + E(trans)
    E(el)   - is the total energy from the electronic structure calculation
              = E(kin-el) + E(nuc-el) + E(el-el) + E(nuc-nuc)
    E(ZPE)  - the the zero temperature vibrational energy from the frequency calculation
    E(vib)  - the the finite temperature correction to E(ZPE) due to population
              of excited vibrational states
    E(rot)  - is the rotational thermal energy
    E(trans)- is the translational thermal energy

Summary of contributions to the inner energy U:
Electronic energy                ...   -975.92800733 Eh
Zero point energy                ...      0.08378457 Eh      52.58 kcal/mol
Thermal vibrational correction   ...      0.00804436 Eh       5.05 kcal/mol
Thermal rotational correction    ...      0.00141627 Eh       0.89 kcal/mol
Thermal translational correction ...      0.00141627 Eh       0.89 kcal/mol
-----------------------------------------------------------------------
Total thermal energy                   -975.83334586 Eh

Summary of corrections to the electronic energy:
(perhaps to be used in another calculation)
Total thermal correction                  0.01087690 Eh       6.83 kcal/mol
Non-thermal (ZPE) correction              0.08378457 Eh      52.58 kcal/mol
-----------------------------------------------------------------------
Total correction                          0.09466147 Eh      59.40 kcal/mol

--------
ENTHALPY
--------

The enthalpy is H = U + kB*T
                kB is Boltzmann's constant
Total thermal energy              ...   -975.83334586 Eh
Thermal Enthalpy correction       ...      0.00094421 Eh       0.59 kcal/mol
-----------------------------------------------------------------------
Total Enthalpy                    ...   -975.83240165 Eh

Note: Only C1 symmetry has been detected, increase convergence thresholds
      if your molecule has a higher symmetry. Symmetry factor of 1.0 is
      used for the rotational entropy correction.

Note: Rotational entropy computed according to Herzberg
Infrared and Raman Spectra, Chapter V,1, Van Nostrand Reinhold, 1945
Point Group:  C1, Symmetry Number:   1
Rotational constants in cm-1:     0.049658     0.047284     0.025387

Vibrational entropy computed according to the QRRHO of S. Grimme
Chem.Eur.J. 2012 18 9955 using a reference frequency of 100.0 cm-1

-------
ENTROPY
-------

The entropy contributions are T*S = T*(S(el)+S(vib)+S(rot)+S(trans))
     S(el)   - electronic entropy
     S(vib)  - vibrational entropy
     S(rot)  - rotational entropy
     S(trans)- translational entropy
The entropies will be listed as multiplied by the temperature to get
units of energy

Electronic entropy                ...      0.00000000 Eh      0.00 kcal/mol
Vibrational entropy               ...      0.01355659 Eh      8.51 kcal/mol
Rotational entropy                ...      0.01410317 Eh      8.85 kcal/mol
Translational entropy             ...      0.01912974 Eh     12.00 kcal/mol
-----------------------------------------------------------------------
Final entropy term                ...      0.04678950 Eh     29.36 kcal/mol

In case the symmetry of your molecule has not been determined correctly
or in case you have a reason to use a different symmetry number we print
out the resulting rotational entropy values for sn=1,12:

 non-linear molecules -----------------------------------
|  sn= 1 | S(rot)=       0.01410317 Eh      8.85 kcal/mol|
|  sn= 2 | S(rot)=       0.01344871 Eh      8.44 kcal/mol|
|  sn= 3 | S(rot)=       0.01306588 Eh      8.20 kcal/mol|
|  sn= 4 | S(rot)=       0.01279426 Eh      8.03 kcal/mol|
|  sn= 5 | S(rot)=       0.01258357 Eh      7.90 kcal/mol|
|  sn= 6 | S(rot)=       0.01241142 Eh      7.79 kcal/mol|
|  sn= 7 | S(rot)=       0.01226588 Eh      7.70 kcal/mol|
|  sn= 8 | S(rot)=       0.01213980 Eh      7.62 kcal/mol|
|  sn= 9 | S(rot)=       0.01202859 Eh      7.55 kcal/mol|
|  sn=10 | S(rot)=       0.01192911 Eh      7.49 kcal/mol|
|  sn=11 | S(rot)=       0.01183912 Eh      7.43 kcal/mol|
|  sn=12 | S(rot)=       0.01175697 Eh      7.38 kcal/mol|
 linear molecules ---------------------------------------
|  Dinfh | S(rot)=       0.00879428 Eh      5.52 kcal/mol|
|  Cinfv | S(rot)=       0.00944874 Eh      5.93 kcal/mol|
 --------------------------------------------------------

-------------------
GIBBS FREE ENERGY

                             ****ORCA TERMINATED NORMALLY****
TOTAL RUN TIME: 0 days 0 hours 2 minutes 35 seconds 66 msec
