                         Program Version 6.1.0  -  RELEASE   -
|  1> # Geometry optimization for (AlH3)n cluster
|  2>
|  3> %pal nprocs 24  end
|  4>
|  5> %geom MaxIter 500 end
|  6>
|  7>
|  8> ! PBE def2-TZVP
|  9> ! RKS	# closed shell for AlH3
| 10> ! D3    #  dispersion correction
| 11> ! Freq 	# Frequency analysis to check the stabiltity of the structures
| 12>
| 13> ! NoPop # population analysis not necessary
| 14>
| 15> ! DEFGRID3
| 16> ! TightSCF
| 17> ! TightOpt
| 18>
| 19> ! SmallPrint
| 20>
| 21>
| 22> * xyzFile 0 1 start.xyz # only maingroup elements H and Al so there should be no net spin
| 23>
| 24>                          ****END OF INPUT****
 Total Charge           Charge          ....    0
 Multiplicity           Mult            ....    1
 Number of Electrons    NEL             ....   96
Dispersion correction           -0.024696863
FINAL SINGLE POINT ENERGY     -1464.535701072149
Dispersion correction             ... done (  0.1 sec)
Dispersion correction           -0.024729586
FINAL SINGLE POINT ENERGY     -1464.535747017446
Dispersion correction             ... done (  0.1 sec)
Dispersion correction           -0.024873883
FINAL SINGLE POINT ENERGY     -1464.535843993600
Dispersion correction             ... done (  0.1 sec)
FINAL SINGLE POINT ENERGY     -1464.535858968230
FINAL SINGLE POINT ENERGY     -1464.535918011776
FINAL SINGLE POINT ENERGY     -1464.535928782498
FINAL SINGLE POINT ENERGY     -1464.535937992521
FINAL SINGLE POINT ENERGY     -1464.535943557924
FINAL SINGLE POINT ENERGY     -1464.535947276540
FINAL SINGLE POINT ENERGY     -1464.535948967269
FINAL SINGLE POINT ENERGY     -1464.536101841452
FINAL SINGLE POINT ENERGY     -1464.536102908360
FINAL SINGLE POINT ENERGY     -1464.536103560836
FINAL SINGLE POINT ENERGY     -1464.536104154641
FINAL SINGLE POINT ENERGY     -1464.536104761570
FINAL SINGLE POINT ENERGY     -1464.536105194566
FINAL SINGLE POINT ENERGY     -1464.536105401317
Dispersion correction             ... done (  0.1 sec)
Dispersion correction           -0.025168653
FINAL SINGLE POINT ENERGY     -1464.536105536356
Dispersion correction             ... done (  0.1 sec)
Dispersion correction           -0.025168398
FINAL SINGLE POINT ENERGY     -1464.536105655677
Dispersion correction             ... done (  0.1 sec)
                    ***********************HURRAY********************

CARTESIAN COORDINATES (ANGSTROEM)
---------------------------------
  Al    -0.108935    1.139316    3.119658
  Al     0.326872   -0.303862    0.460694
  H      1.498309   -1.485531    0.865923
  H     -1.118895   -0.877299    0.793315
  H      0.823242    0.724192    1.736642
  H     -1.466375    1.799006    2.614915
  H     -0.518784   -0.425865    3.640336
  H      0.820961    0.376229   -0.884651
  Al     1.179881   -3.078617    1.421904
  H      0.174899   -2.709792    2.744891
  H      0.242955   -3.794800    0.352853
  H      0.938371    1.769792    4.136296
  Al     0.602209   -1.681077    4.083416
  H     -0.942163   -2.424199    4.636420
  H      2.009602   -1.078910    3.629260
  H      2.578285   -3.605803    1.964950
  Al    -1.792153   -2.681810    6.060765
  H     -2.555670   -4.073436    5.986413
  H     -2.327448   -1.303597    6.642318
  Al     1.138806   -2.472419    6.530099
  H      2.264657   -2.543276    7.633490
  H      0.666340   -1.021802    5.855107
  H      1.335654   -3.166584    5.030435
  H     -0.354261   -3.084476    7.011379

 Multiplicity           Mult            ....    1
 Number of Electrons    NEL             ....   96
 Basis Dimension        Dim             ....  330

ORBITAL ENERGIES
----------------

  NO   OCC          E(Eh)            E(eV)
   0   2.0000     -55.407568     -1507.7166
   1   2.0000     -55.402983     -1507.5918
   2   2.0000     -55.383921     -1507.0731
   3   2.0000     -55.376759     -1506.8782
   4   2.0000     -55.373105     -1506.7788
   5   2.0000     -55.372814     -1506.7709
   6   2.0000      -3.963910      -107.8635
   7   2.0000      -3.963162      -107.8431
   8   2.0000      -3.944392      -107.3324
   9   2.0000      -3.937466      -107.1439
  10   2.0000      -3.933572      -107.0379
  11   2.0000      -3.933287      -107.0302
  12   2.0000      -2.567664       -69.8697
  13   2.0000      -2.567357       -69.8613
  14   2.0000      -2.566663       -69.8425
  15   2.0000      -2.566526       -69.8387
  16   2.0000      -2.562123       -69.7189
  17   2.0000      -2.561923       -69.7135
  18   2.0000      -2.550118       -69.3922
  19   2.0000      -2.546722       -69.2998
  20   2.0000      -2.542518       -69.1854
  21   2.0000      -2.541729       -69.1640
  22   2.0000      -2.540224       -69.1230
  23   2.0000      -2.538547       -69.0774
  24   2.0000      -2.538277       -69.0700
  25   2.0000      -2.536356       -69.0178
  26   2.0000      -2.536074       -69.0101
  27   2.0000      -2.534974       -68.9801
  28   2.0000      -2.531149       -68.8761
  29   2.0000      -2.530848       -68.8679
  30   2.0000      -0.513893       -13.9837
  31   2.0000      -0.469023       -12.7628
  32   2.0000      -0.424515       -11.5517
  33   2.0000      -0.417412       -11.3584
  34   2.0000      -0.402706       -10.9582
  35   2.0000      -0.359178        -9.7737
  36   2.0000      -0.346578        -9.4309
  37   2.0000      -0.326094        -8.8735
  38   2.0000      -0.316059        -8.6004
  39   2.0000      -0.311665        -8.4808
  40   2.0000      -0.310337        -8.4447
  41   2.0000      -0.299409        -8.1473
  42   2.0000      -0.287443        -7.8217
  43   2.0000      -0.282092        -7.6761
  44   2.0000      -0.279343        -7.6013
  45   2.0000      -0.270695        -7.3660
  46   2.0000      -0.263836        -7.1793
  47   2.0000      -0.253695        -6.9034
  48   0.0000      -0.089032        -2.4227
  49   0.0000      -0.065518        -1.7828
  50   0.0000      -0.059976        -1.6320
  51   0.0000      -0.056876        -1.5477
  52   0.0000      -0.045678        -1.2430

-------
TIMINGS
-------

Dispersion correction           -0.025168609
FINAL SINGLE POINT ENERGY     -1464.536105756110

DIPOLE MOMENT
-------------

Method             : SCF
Type of density    : Electron Density
Multiplicity       :   1
Irrep              :   0
Energy             : -1464.5109371473281499 Eh
Basis              : AO
                                X                 Y                 Z
Electronic contribution:      0.088667238      -0.679211091       1.452279850
Nuclear contribution   :      0.025905244       0.270291838      -0.558769262
                        -----------------------------------------
Total Dipole Moment    :      0.114572483      -0.408919253       0.893510588
                        -----------------------------------------
Magnitude (a.u.)       :      0.989294183
Magnitude (Debye)      :      2.514585975

VIBRATIONAL FREQUENCIES
-----------------------

Scaling factor for frequencies =  1.000000000  (already applied!)

     0:       0.00 cm**-1
     1:       0.00 cm**-1
     2:       0.00 cm**-1
     3:       0.00 cm**-1
     4:       0.00 cm**-1
     5:       0.00 cm**-1
     6:      39.38 cm**-1
     7:      45.75 cm**-1
     8:      52.50 cm**-1
     9:      79.46 cm**-1
    10:     104.13 cm**-1
    11:     127.72 cm**-1
    12:     137.87 cm**-1
    13:     152.82 cm**-1
    14:     167.54 cm**-1
    15:     189.66 cm**-1
    16:     224.48 cm**-1
    17:     233.28 cm**-1
    18:     282.08 cm**-1
    19:     296.85 cm**-1
    20:     323.44 cm**-1
    21:     343.35 cm**-1
    22:     358.10 cm**-1
    23:     374.01 cm**-1
    24:     388.34 cm**-1
    25:     399.17 cm**-1
    26:     413.20 cm**-1
    27:     440.50 cm**-1
    28:     459.97 cm**-1
    29:     485.29 cm**-1
    30:     490.45 cm**-1
    31:     524.02 cm**-1
    32:     551.86 cm**-1
    33:     564.15 cm**-1
    34:     642.74 cm**-1
    35:     646.14 cm**-1
    36:     674.14 cm**-1
    37:     677.48 cm**-1
    38:     690.17 cm**-1
    39:     703.46 cm**-1
    40:     709.69 cm**-1
    41:     716.21 cm**-1
    42:     726.22 cm**-1
    43:     755.43 cm**-1
    44:     790.16 cm**-1
    45:     819.18 cm**-1
    46:     931.57 cm**-1
    47:     979.57 cm**-1
    48:    1065.06 cm**-1
    49:    1093.54 cm**-1
    50:    1099.77 cm**-1
    51:    1106.98 cm**-1
    52:    1134.07 cm**-1
    53:    1145.61 cm**-1
    54:    1593.18 cm**-1
    55:    1631.93 cm**-1
    56:    1664.09 cm**-1
    57:    1677.64 cm**-1
    58:    1710.90 cm**-1
    59:    1742.99 cm**-1
    60:    1781.90 cm**-1
    61:    1834.19 cm**-1
    62:    1869.65 cm**-1
    63:    1884.89 cm**-1
    64:    1887.50 cm**-1
    65:    1890.80 cm**-1
    66:    1892.39 cm**-1
    67:    1897.51 cm**-1
    68:    1900.95 cm**-1
    69:    1908.41 cm**-1
    70:    1912.41 cm**-1
    71:    1941.37 cm**-1

IR SPECTRUM
-----------

 Mode   freq       eps      Int      T**2         TX        TY        TZ
       cm**-1   L/(mol*cm) km/mol    a.u.
----------------------------------------------------------------------------
  6:     39.38   0.000031    0.16  0.000246  (-0.002489 -0.015473  0.000879)
  7:     45.75   0.000026    0.13  0.000174  (-0.007207  0.008825 -0.006673)
  8:     52.50   0.000043    0.22  0.000255  (-0.000478 -0.010788 -0.011744)
  9:     79.46   0.000021    0.10  0.000081  ( 0.001094 -0.003516  0.008217)
 10:    104.13   0.000076    0.38  0.000228  (-0.015057 -0.000818  0.000856)
 11:    127.72   0.000053    0.27  0.000130  (-0.002440  0.010106 -0.004711)
 12:    137.87   0.000516    2.61  0.001167  ( 0.009554 -0.031396 -0.009486)
 13:    152.82   0.000093    0.47  0.000190  ( 0.004549 -0.012935  0.001537)
 14:    167.54   0.000226    1.14  0.000421  (-0.010207 -0.000852 -0.017768)
 15:    189.66   0.000784    3.96  0.001291  ( 0.007581 -0.012014  0.032998)
 16:    224.48   0.001908    9.64  0.002653  (-0.001929  0.006510  0.051055)
 17:    233.28   0.000728    3.68  0.000974  ( 0.001941 -0.004470  0.030821)
 18:    282.08   0.000843    4.26  0.000932  ( 0.010328  0.028709 -0.001161)
 19:    296.85   0.001422    7.19  0.001495  ( 0.006226 -0.025546  0.028343)
 20:    323.44   0.000717    3.62  0.000691  (-0.003484  0.006569 -0.025221)
 21:    343.35   0.000581    2.94  0.000528  ( 0.019249  0.010467 -0.006951)
 22:    358.10   0.000662    3.35  0.000577  ( 0.001180 -0.023019 -0.006749)
 23:    374.01   0.007901   39.93  0.006592  (-0.052284 -0.035846  0.050729)
 24:    388.34   0.000056    0.28  0.000045  ( 0.004288 -0.002524  0.004522)
 25:    399.17   0.000124    0.63  0.000097  (-0.002496  0.009440  0.001397)
 26:    413.20   0.000168    0.85  0.000127  (-0.003083  0.008948  0.006091)
 27:    440.50   0.003581   18.10  0.002537  ( 0.004576  0.011676 -0.048781)
 28:    459.97   0.001012    5.11  0.000687  ( 0.005461 -0.025387 -0.003501)
 29:    485.29   0.022328  112.84  0.014358  (-0.063150 -0.050855  0.088226)
 30:    490.45   0.003409   17.23  0.002169  ( 0.025857  0.026773 -0.027991)
 31:    524.02   0.008295   41.92  0.004940  (-0.034720 -0.017184  0.058643)
 32:    551.86   0.019157   96.81  0.010833  (-0.008729  0.101789 -0.019898)
 33:    564.15   0.022937  115.91  0.012688  (-0.044154  0.016777  0.102257)
 34:    642.74   0.030997  156.65  0.015050  (-0.032284  0.085612  0.081719)
 35:    646.14   0.094646  478.30  0.045711  (-0.055390  0.145387  0.146648)
 36:    674.14   0.135939  686.98  0.062927  ( 0.041556  0.080761 -0.233833)
 37:    677.48   0.123074  621.96  0.056691  (-0.018194  0.234222 -0.038730)
 38:    690.17   0.062194  314.30  0.028122  (-0.155711  0.049248  0.038082)
 39:    703.46   0.045543  230.16  0.020203  ( 0.125079 -0.016810  0.065390)
 40:    709.69   0.010446   52.79  0.004593  ( 0.006055  0.014824  0.065856)
 41:    716.21   0.071388  360.77  0.031105  ( 0.009021 -0.076074  0.158860)
 42:    726.22   0.005938   30.01  0.002552  (-0.011341  0.043681  0.022692)
 43:    755.43   0.011171   56.45  0.004615  (-0.059086  0.001210 -0.033495)
 44:    790.16   0.028053  141.77  0.011079  ( 0.065484 -0.068750  0.045435)
 45:    819.18   0.031673  160.06  0.012066  ( 0.074941  0.057757  0.055801)
 46:    931.57   0.039337  198.79  0.013177  (-0.023372 -0.019945 -0.110605)
 47:    979.57   0.016417   82.97  0.005230  ( 0.036955 -0.061765 -0.007038)
 48:   1065.06   0.000046    0.23  0.000013  ( 0.003433 -0.000542  0.001144)
 49:   1093.54   0.014331   72.42  0.004090  (-0.054099 -0.027664  0.019939)
 50:   1099.77   0.005987   30.26  0.001699  ( 0.033728 -0.022791 -0.006467)
 51:   1106.98   0.044372  224.24  0.012509  (-0.101570 -0.034571 -0.031574)
 52:   1134.07   0.010839   54.78  0.002983  (-0.048694 -0.004845  0.024252)
 53:   1145.61   0.101127  511.06  0.027547  ( 0.015144 -0.070988  0.149260)
 54:   1593.18   0.016360   82.67  0.003204  (-0.012062  0.054979  0.006023)
 55:   1631.93   0.120120  607.04  0.022970  ( 0.030176  0.035107 -0.144315)
 56:   1664.09   0.179952  909.41  0.033746  (-0.068559 -0.046438  0.163980)
 57:   1677.64   0.069242  349.92  0.012880  ( 0.019927  0.053167 -0.098266)
 58:   1710.90   0.099798  504.34  0.018203  (-0.134108 -0.014688 -0.001489)
 59:   1742.99   0.294463  1488.10  0.052720  (-0.057432  0.208924  0.075978)
 60:   1781.90   0.085102  430.07  0.014904  (-0.016043  0.047743 -0.111208)
 61:   1834.19   0.060260  304.53  0.010253  ( 0.092898  0.024548 -0.031936)
 62:   1869.65   0.015845   80.07  0.002645  (-0.034920  0.014913 -0.034682)
 63:   1884.89   0.006660   33.65  0.001103  (-0.006246  0.028062  0.016615)
 64:   1887.50   0.001438    7.27  0.000238  (-0.006121  0.006498 -0.012570)
 65:   1890.80   0.007698   38.90  0.001271  ( 0.004039 -0.013500  0.032741)
 66:   1892.39   0.002164   10.94  0.000357  ( 0.018132  0.000003 -0.005305)
 67:   1897.51   0.000810    4.09  0.000133  ( 0.010736 -0.000072  0.004230)
 68:   1900.95   0.061765  312.14  0.010139  ( 0.087548  0.004678  0.049527)
 69:   1908.41   0.035106  177.41  0.005741  ( 0.005315  0.073769  0.016445)
 70:   1912.41   0.027190  137.41  0.004437  ( 0.041389  0.029446 -0.043089)
 71:   1941.37   0.018892   95.47  0.003037  ( 0.033922 -0.005413  0.043091)

--------------------------
THERMOCHEMISTRY AT 298.15K
--------------------------

Temperature         ...   298.15 K
Pressure            ...     1.00 atm
Total Mass          ...   180.04 AMU
Quasi RRHO          ...     True
Cut-Off Frequency   ...     1.00 cm^-1

Throughout the following assumptions are being made:
  (1) The electronic state is orbitally nondegenerate
  (2) There are no thermally accessible electronically excited states
  (3) Hindered rotations indicated by low frequency modes are not
      treated as such but are treated as vibrations and this may
      cause some error
  (4) All equations used are the standard statistical mechanics
      equations for an ideal gas
  (5) All vibrations are strictly harmonic

freq.      39.38  E(vib)   ...       0.54
freq.      45.75  E(vib)   ...       0.53
freq.      52.50  E(vib)   ...       0.52
freq.      79.46  E(vib)   ...       0.49
freq.     104.13  E(vib)   ...       0.46
freq.     127.72  E(vib)   ...       0.43
freq.     137.87  E(vib)   ...       0.42
freq.     152.82  E(vib)   ...       0.40
freq.     167.54  E(vib)   ...       0.38
freq.     189.66  E(vib)   ...       0.36
freq.     224.48  E(vib)   ...       0.33
freq.     233.28  E(vib)   ...       0.32
freq.     282.08  E(vib)   ...       0.28
freq.     296.85  E(vib)   ...       0.27
freq.     323.44  E(vib)   ...       0.25
freq.     343.35  E(vib)   ...       0.23
freq.     358.10  E(vib)   ...       0.22
freq.     374.01  E(vib)   ...       0.21
freq.     388.34  E(vib)   ...       0.20
freq.     399.17  E(vib)   ...       0.19
freq.     413.20  E(vib)   ...       0.19
freq.     440.50  E(vib)   ...       0.17
freq.     459.97  E(vib)   ...       0.16
freq.     485.29  E(vib)   ...       0.15
freq.     490.45  E(vib)   ...       0.15
freq.     524.02  E(vib)   ...       0.13
freq.     551.86  E(vib)   ...       0.12
freq.     564.15  E(vib)   ...       0.11
freq.     642.74  E(vib)   ...       0.09
freq.     646.14  E(vib)   ...       0.09
freq.     674.14  E(vib)   ...       0.08
freq.     677.48  E(vib)   ...       0.08
freq.     690.17  E(vib)   ...       0.07
freq.     703.46  E(vib)   ...       0.07
freq.     709.69  E(vib)   ...       0.07
freq.     716.21  E(vib)   ...       0.07
freq.     726.22  E(vib)   ...       0.06
freq.     755.43  E(vib)   ...       0.06
freq.     790.16  E(vib)   ...       0.05
freq.     819.18  E(vib)   ...       0.05
freq.     931.57  E(vib)   ...       0.03
freq.     979.57  E(vib)   ...       0.03
freq.    1065.06  E(vib)   ...       0.02
freq.    1093.54  E(vib)   ...       0.02
freq.    1099.77  E(vib)   ...       0.02
freq.    1106.98  E(vib)   ...       0.02
freq.    1134.07  E(vib)   ...       0.01
freq.    1145.61  E(vib)   ...       0.01
freq.    1593.18  E(vib)   ...       0.00
freq.    1631.93  E(vib)   ...       0.00
freq.    1664.09  E(vib)   ...       0.00
freq.    1677.64  E(vib)   ...       0.00
freq.    1710.90  E(vib)   ...       0.00
freq.    1742.99  E(vib)   ...       0.00
freq.    1781.90  E(vib)   ...       0.00
freq.    1834.19  E(vib)   ...       0.00
freq.    1869.65  E(vib)   ...       0.00
freq.    1884.89  E(vib)   ...       0.00
freq.    1887.50  E(vib)   ...       0.00
freq.    1890.80  E(vib)   ...       0.00
freq.    1892.39  E(vib)   ...       0.00
freq.    1897.51  E(vib)   ...       0.00
freq.    1900.95  E(vib)   ...       0.00
freq.    1908.41  E(vib)   ...       0.00
freq.    1912.41  E(vib)   ...       0.00
freq.    1941.37  E(vib)   ...       0.00

------------
INNER ENERGY
------------

The inner energy is: U= E(el) + E(ZPE) + E(vib) + E(rot) + E(trans)
    E(el)   - is the total energy from the electronic structure calculation
              = E(kin-el) + E(nuc-el) + E(el-el) + E(nuc-nuc)
    E(ZPE)  - the the zero temperature vibrational energy from the frequency calculation
    E(vib)  - the the finite temperature correction to E(ZPE) due to population
              of excited vibrational states
    E(rot)  - is the rotational thermal energy
    E(trans)- is the translational thermal energy

Summary of contributions to the inner energy U:
Electronic energy                ...  -1464.53610576 Eh
Zero point energy                ...      0.13208647 Eh      82.89 kcal/mol
Thermal vibrational correction   ...      0.01462884 Eh       9.18 kcal/mol
Thermal rotational correction    ...      0.00141627 Eh       0.89 kcal/mol
Thermal translational correction ...      0.00141627 Eh       0.89 kcal/mol
-----------------------------------------------------------------------
Total thermal energy                  -1464.38655791 Eh

Summary of corrections to the electronic energy:
(perhaps to be used in another calculation)
Total thermal correction                  0.01746138 Eh      10.96 kcal/mol
Non-thermal (ZPE) correction              0.13208647 Eh      82.89 kcal/mol
-----------------------------------------------------------------------
Total correction                          0.14954785 Eh      93.84 kcal/mol

--------
ENTHALPY
--------

The enthalpy is H = U + kB*T
                kB is Boltzmann's constant
Total thermal energy              ...  -1464.38655791 Eh
Thermal Enthalpy correction       ...      0.00094421 Eh       0.59 kcal/mol
-----------------------------------------------------------------------
Total Enthalpy                    ...  -1464.38561370 Eh

Note: Only C1 symmetry has been detected, increase convergence thresholds
      if your molecule has a higher symmetry. Symmetry factor of 1.0 is
      used for the rotational entropy correction.

Note: Rotational entropy computed according to Herzberg
Infrared and Raman Spectra, Chapter V,1, Van Nostrand Reinhold, 1945
Point Group:  C1, Symmetry Number:   1
Rotational constants in cm-1:     0.032602     0.014432     0.012341

Vibrational entropy computed according to the QRRHO of S. Grimme
Chem.Eur.J. 2012 18 9955 using a reference frequency of 100.0 cm-1

-------
ENTROPY
-------

The entropy contributions are T*S = T*(S(el)+S(vib)+S(rot)+S(trans))
     S(el)   - electronic entropy
     S(vib)  - vibrational entropy
     S(rot)  - rotational entropy
     S(trans)- translational entropy
The entropies will be listed as multiplied by the temperature to get
units of energy

Electronic entropy                ...      0.00000000 Eh      0.00 kcal/mol
Vibrational entropy               ...      0.02548994 Eh     16.00 kcal/mol
Rotational entropy                ...      0.01520258 Eh      9.54 kcal/mol
Translational entropy             ...      0.01970399 Eh     12.36 kcal/mol
-----------------------------------------------------------------------
Final entropy term                ...      0.06039651 Eh     37.90 kcal/mol

                             ****ORCA TERMINATED NORMALLY****
TOTAL RUN TIME: 0 days 0 hours 22 minutes 25 seconds 794 msec
