                         Program Version 6.1.0  -  RELEASE   -
|  1> # Geometry optimization for (AlH3)n cluster
|  2>
|  3> %pal nprocs 24  end
|  4>
|  5> %geom MaxIter 500 end
|  6>
|  7>
|  8> ! PBE def2-SV(P)
|  9> ! RKS	# closed shell for AlH3
| 10> ! D3    #  dispersion correction
| 11> ! Freq 	# Frequency analysis to check the stabiltity of the structures
| 12>
| 13> ! NoPop # population analysis not necessary
| 14>
| 15> ! RI
| 16> ! DEFGRID2
| 17> ! NormalSCF
| 18> ! SloppyOpt
| 19>
| 20> ! SmallPrint
| 21>
| 22>
| 23> * xyzFile 0 1 start.xyz # only maingroup elements H and Al so there should be no net spin
| 24>
| 25>                          ****END OF INPUT****
 Total Charge           Charge          ....    0
 Multiplicity           Mult            ....    1
 Number of Electrons    NEL             ....   48
Dispersion correction           -0.008909393
FINAL SINGLE POINT ENERGY      -731.964209493383
Dispersion correction             ... done (  0.1 sec)
Dispersion correction           -0.008919865
FINAL SINGLE POINT ENERGY      -731.968800573845
Dispersion correction             ... done (  0.1 sec)
Dispersion correction           -0.008940250
FINAL SINGLE POINT ENERGY      -731.975513842916
Dispersion correction             ... done (  0.1 sec)
FINAL SINGLE POINT ENERGY      -731.978977346017
Dispersion correction             ... done (  0.1 sec)
Dispersion correction           -0.008983629
FINAL SINGLE POINT ENERGY      -731.982562001052
Dispersion correction             ... done (  0.1 sec)
Dispersion correction           -0.009013524
FINAL SINGLE POINT ENERGY      -731.984500140731
Dispersion correction             ... done (  0.1 sec)
                    ***********************HURRAY********************

CARTESIAN COORDINATES (ANGSTROEM)
---------------------------------
  Al    -0.256726    1.521224    2.571365
  Al    -0.000297    0.001747   -0.092949
  H      0.794326   -1.071900    0.999876
  H     -1.183351   -0.823536   -0.777562
  H     -0.805193    1.055714    1.009316
  H     -1.542772    2.128397    3.295866
  H      0.001732   -0.002463    3.298019
  H      1.193225    0.831134   -0.753447
  Al     0.278912   -1.529084    2.577798
  H      1.601508   -2.077286    3.282485
  H     -1.180553   -2.156530    2.400045
  H      1.206129    2.130892    2.359547

 Multiplicity           Mult            ....    1
 Number of Electrons    NEL             ....   48
 Basis Dimension        Dim             ....   72

ORBITAL ENERGIES
----------------

  NO   OCC          E(Eh)            E(eV)
   0   2.0000     -55.391421     -1507.2772
   1   2.0000     -55.390662     -1507.2565
   2   2.0000     -55.390513     -1507.2525
   3   2.0000      -3.949615      -107.4745
   4   2.0000      -3.948923      -107.4557
   5   2.0000      -3.948466      -107.4432
   6   2.0000      -2.558078       -69.6088
   7   2.0000      -2.557384       -69.5900
   8   2.0000      -2.557047       -69.5808
   9   2.0000      -2.556611       -69.5689
  10   2.0000      -2.555796       -69.5467
  11   2.0000      -2.555313       -69.5336
  12   2.0000      -2.550087       -69.3914
  13   2.0000      -2.549497       -69.3754
  14   2.0000      -2.548937       -69.3601
  15   2.0000      -0.483710       -13.1624
  16   2.0000      -0.398969       -10.8565
  17   2.0000      -0.397934       -10.8283
  18   2.0000      -0.312971        -8.5164
  19   2.0000      -0.308273        -8.3885
  20   2.0000      -0.293437        -7.9848
  21   2.0000      -0.290269        -7.8986
  22   2.0000      -0.277201        -7.5430
  23   2.0000      -0.271928        -7.3995
  24   0.0000      -0.053511        -1.4561
  25   0.0000      -0.050593        -1.3767
  26   0.0000      -0.048156        -1.3104
  27   0.0000      -0.045207        -1.2301
  28   0.0000      -0.008417        -0.2290

-------
TIMINGS
-------

Dispersion correction           -0.009013339
FINAL SINGLE POINT ENERGY      -731.984702657597

DIPOLE MOMENT
-------------

Method             : SCF
Type of density    : Electron Density
Multiplicity       :   1
Irrep              :   0
Energy             :  -731.9756893187231981 Eh
Basis              : AO
                                X                 Y                 Z
Electronic contribution:     -0.030523279      -0.052055243       0.122871192
Nuclear contribution   :      0.016940733       0.028634949      -0.047631789
                        -----------------------------------------
Total Dipole Moment    :     -0.013582547      -0.023420294       0.075239403
                        -----------------------------------------
Magnitude (a.u.)       :      0.079962263
Magnitude (Debye)      :      0.203247920

VIBRATIONAL FREQUENCIES
-----------------------

Scaling factor for frequencies =  1.000000000  (already applied!)

     0:       0.00 cm**-1
     1:       0.00 cm**-1
     2:       0.00 cm**-1
     3:       0.00 cm**-1
     4:       0.00 cm**-1
     5:       0.00 cm**-1
     6:    -104.95 cm**-1  ***imaginary mode***
     7:     117.19 cm**-1
     8:     135.54 cm**-1
     9:     218.78 cm**-1
    10:     277.62 cm**-1
    11:     311.87 cm**-1
    12:     422.57 cm**-1
    13:     434.57 cm**-1
    14:     452.39 cm**-1
    15:     494.35 cm**-1
    16:     527.44 cm**-1
    17:     577.46 cm**-1
    18:     661.83 cm**-1
    19:     664.11 cm**-1
    20:     700.48 cm**-1
    21:     743.03 cm**-1
    22:     755.74 cm**-1
    23:     761.57 cm**-1
    24:    1034.12 cm**-1
    25:    1052.22 cm**-1
    26:    1098.29 cm**-1
    27:    1750.00 cm**-1
    28:    1786.52 cm**-1
    29:    1842.59 cm**-1
    30:    1912.99 cm**-1
    31:    1916.68 cm**-1
    32:    1920.19 cm**-1
    33:    1934.03 cm**-1
    34:    1935.82 cm**-1
    35:    1941.38 cm**-1

IR SPECTRUM
-----------

 Mode   freq       eps      Int      T**2         TX        TY        TZ
       cm**-1   L/(mol*cm) km/mol    a.u.
----------------------------------------------------------------------------
  7:    117.19   0.000229    1.16  0.000611  (-0.003049 -0.001476 -0.024480)
  8:    135.54   0.000084    0.43  0.000194  ( 0.013233  0.001327 -0.004122)
  9:    218.78   0.000366    1.85  0.000522  (-0.000003  0.000188 -0.022838)
 10:    277.62   0.001340    6.77  0.001506  ( 0.031690 -0.022409 -0.000028)
 11:    311.87   0.000095    0.48  0.000095  (-0.004297  0.001927  0.008543)
 12:    422.57   0.000600    3.03  0.000443  (-0.016794  0.012688  0.000663)
 13:    434.57   0.000125    0.63  0.000090  ( 0.001320 -0.001097  0.009321)
 14:    452.39   0.003017   15.25  0.002081  ( 0.000114 -0.000822  0.045613)
 15:    494.35   0.000015    0.07  0.000009  (-0.002658 -0.000135  0.001474)
 16:    527.44   0.015740   79.55  0.009313  (-0.069165  0.067248 -0.002634)
 17:    577.46   0.027838  140.68  0.015044  (-0.003278  0.004479  0.122529)
 18:    661.83   0.108803  549.85  0.051302  ( 0.009301  0.207340 -0.090696)
 19:    664.11   0.090071  455.18  0.042324  ( 0.006852  0.100686  0.179275)
 20:    700.48   0.000356    1.80  0.000158  (-0.002403 -0.010361  0.006733)
 21:    743.03   0.032001  161.72  0.013440  (-0.064892  0.096036 -0.002471)
 22:    755.74   0.036922  186.59  0.015246  (-0.062167 -0.106222 -0.009917)
 23:    761.57   0.031598  159.68  0.012948  (-0.002835 -0.009315  0.113371)
 24:   1034.12   0.036282  183.35  0.010949  (-0.018368  0.011187  0.102402)
 25:   1052.22   0.042379  214.16  0.012569  ( 0.097832 -0.052529  0.015431)
 26:   1098.29   0.000579    2.93  0.000165  (-0.011424  0.004888 -0.003182)
 27:   1750.00   0.024924  125.96  0.004445  ( 0.009108 -0.066023  0.001587)
 28:   1786.52   0.199888  1010.15  0.034916  ( 0.001279 -0.001484  0.186847)
 29:   1842.59   0.179627  907.76  0.030422  ( 0.021154 -0.173131 -0.000321)
 30:   1912.99   0.000248    1.26  0.000041  ( 0.002444 -0.000755 -0.005830)
 31:   1916.68   0.001236    6.25  0.000201  (-0.001436 -0.000878 -0.014088)
 32:   1920.19   0.007800   39.42  0.001268  (-0.030125  0.018967  0.000564)
 33:   1934.03   0.006155   31.11  0.000993  ( 0.013649 -0.021876 -0.018121)
 34:   1935.82   0.006560   33.15  0.001058  ( 0.009103  0.018679 -0.025015)
 35:   1941.38   0.071930  363.51  0.011562  (-0.103438 -0.029119 -0.003877)

--------------------------
THERMOCHEMISTRY AT 298.15K
--------------------------

Temperature         ...   298.15 K
Pressure            ...     1.00 atm
Total Mass          ...    90.02 AMU
Quasi RRHO          ...     True
Cut-Off Frequency   ...     1.00 cm^-1

Throughout the following assumptions are being made:
  (1) The electronic state is orbitally nondegenerate
  (2) There are no thermally accessible electronically excited states
  (3) Hindered rotations indicated by low frequency modes are not
      treated as such but are treated as vibrations and this may
      cause some error
  (4) All equations used are the standard statistical mechanics
      equations for an ideal gas
  (5) All vibrations are strictly harmonic

freq.     117.19  E(vib)   ...       0.44
freq.     135.54  E(vib)   ...       0.42
freq.     218.78  E(vib)   ...       0.33
freq.     277.62  E(vib)   ...       0.28
freq.     311.87  E(vib)   ...       0.25
freq.     422.57  E(vib)   ...       0.18
freq.     434.57  E(vib)   ...       0.17
freq.     452.39  E(vib)   ...       0.16
freq.     494.35  E(vib)   ...       0.14
freq.     527.44  E(vib)   ...       0.13
freq.     577.46  E(vib)   ...       0.11
freq.     661.83  E(vib)   ...       0.08
freq.     664.11  E(vib)   ...       0.08
freq.     700.48  E(vib)   ...       0.07
freq.     743.03  E(vib)   ...       0.06
freq.     755.74  E(vib)   ...       0.06
freq.     761.57  E(vib)   ...       0.06
freq.    1034.12  E(vib)   ...       0.02
freq.    1052.22  E(vib)   ...       0.02
freq.    1098.29  E(vib)   ...       0.02
freq.    1750.00  E(vib)   ...       0.00
freq.    1786.52  E(vib)   ...       0.00
freq.    1842.59  E(vib)   ...       0.00
freq.    1912.99  E(vib)   ...       0.00
freq.    1916.68  E(vib)   ...       0.00
freq.    1920.19  E(vib)   ...       0.00
freq.    1934.03  E(vib)   ...       0.00
freq.    1935.82  E(vib)   ...       0.00
freq.    1941.38  E(vib)   ...       0.00

------------
INNER ENERGY
------------

The inner energy is: U= E(el) + E(ZPE) + E(vib) + E(rot) + E(trans)
    E(el)   - is the total energy from the electronic structure calculation
              = E(kin-el) + E(nuc-el) + E(el-el) + E(nuc-nuc)
    E(ZPE)  - the the zero temperature vibrational energy from the frequency calculation
    E(vib)  - the the finite temperature correction to E(ZPE) due to population
              of excited vibrational states
    E(rot)  - is the rotational thermal energy
    E(trans)- is the translational thermal energy

Summary of contributions to the inner energy U:
Electronic energy                ...   -731.98470266 Eh
Zero point energy                ...      0.06465747 Eh      40.57 kcal/mol
Thermal vibrational correction   ...      0.00493533 Eh       3.10 kcal/mol
Thermal rotational correction    ...      0.00141627 Eh       0.89 kcal/mol
Thermal translational correction ...      0.00141627 Eh       0.89 kcal/mol
-----------------------------------------------------------------------
Total thermal energy                   -731.91227732 Eh

Summary of corrections to the electronic energy:
(perhaps to be used in another calculation)
Total thermal correction                  0.00776787 Eh       4.87 kcal/mol
Non-thermal (ZPE) correction              0.06465747 Eh      40.57 kcal/mol
-----------------------------------------------------------------------
Total correction                          0.07242534 Eh      45.45 kcal/mol

--------
ENTHALPY
--------

The enthalpy is H = U + kB*T
                kB is Boltzmann's constant
Total thermal energy              ...   -731.91227732 Eh
Thermal Enthalpy correction       ...      0.00094421 Eh       0.59 kcal/mol
-----------------------------------------------------------------------
Total Enthalpy                    ...   -731.91133311 Eh

Note: Only C1 symmetry has been detected, increase convergence thresholds
      if your molecule has a higher symmetry. Symmetry factor of 1.0 is
      used for the rotational entropy correction.

Note: Rotational entropy computed according to Herzberg
Infrared and Raman Spectra, Chapter V,1, Van Nostrand Reinhold, 1945
Point Group:  C1, Symmetry Number:   1
Rotational constants in cm-1:     0.104400     0.103139     0.055969

Vibrational entropy computed according to the QRRHO of S. Grimme
Chem.Eur.J. 2012 18 9955 using a reference frequency of 100.0 cm-1

-------
ENTROPY
-------

The entropy contributions are T*S = T*(S(el)+S(vib)+S(rot)+S(trans))
     S(el)   - electronic entropy
     S(vib)  - vibrational entropy
     S(rot)  - rotational entropy
     S(trans)- translational entropy
The entropies will be listed as multiplied by the temperature to get
units of energy

Electronic entropy                ...      0.00000000 Eh      0.00 kcal/mol
Vibrational entropy               ...      0.00805237 Eh      5.05 kcal/mol
Rotational entropy                ...      0.01301096 Eh      8.16 kcal/mol
Translational entropy             ...      0.01872231 Eh     11.75 kcal/mol
-----------------------------------------------------------------------
Final entropy term                ...      0.03978563 Eh     24.97 kcal/mol

In case the symmetry of your molecule has not been determined correctly
or in case you have a reason to use a different symmetry number we print
out the resulting rotational entropy values for sn=1,12:

 non-linear molecules -----------------------------------
|  sn= 1 | S(rot)=       0.01301096 Eh      8.16 kcal/mol|
|  sn= 2 | S(rot)=       0.01235650 Eh      7.75 kcal/mol|
|  sn= 3 | S(rot)=       0.01197367 Eh      7.51 kcal/mol|
|  sn= 4 | S(rot)=       0.01170205 Eh      7.34 kcal/mol|
|  sn= 5 | S(rot)=       0.01149136 Eh      7.21 kcal/mol|
|  sn= 6 | S(rot)=       0.01131921 Eh      7.10 kcal/mol|
|  sn= 7 | S(rot)=       0.01117367 Eh      7.01 kcal/mol|
|  sn= 8 | S(rot)=       0.01104759 Eh      6.93 kcal/mol|
|  sn= 9 | S(rot)=       0.01093638 Eh      6.86 kcal/mol|
|  sn=10 | S(rot)=       0.01083690 Eh      6.80 kcal/mol|
|  sn=11 | S(rot)=       0.01074691 Eh      6.74 kcal/mol|
|  sn=12 | S(rot)=       0.01066476 Eh      6.69 kcal/mol|
 linear molecules ---------------------------------------
|  Dinfh | S(rot)=       0.00804783 Eh      5.05 kcal/mol|
|  Cinfv | S(rot)=       0.00870229 Eh      5.46 kcal/mol|
 --------------------------------------------------------

-------------------
GIBBS FREE ENERGY
-------------------

The Gibbs free energy is G = H - T*S

Total enthalpy                    ...   -731.91133311 Eh
Total entropy correction          ...     -0.03978563 Eh    -24.97 kcal/mol
-----------------------------------------------------------------------
Final Gibbs free energy         ...   -731.95111874 Eh

For completeness - the Gibbs free energy minus the electronic energy
G-E(el)                           ...      0.03358391 Eh     21.07 kcal/mol

                             ****ORCA TERMINATED NORMALLY****
TOTAL RUN TIME: 0 days 0 hours 0 minutes 58 seconds 865 msec
