                         Program Version 6.1.0  -  RELEASE   -
|  1> # Geometry optimization for (AlH3)n cluster
|  2>
|  3> %pal nprocs 24  end
|  4>
|  5> %geom MaxIter 500 end
|  6>
|  7>
|  8> ! PBE def2-SV(P)
|  9> ! RKS	# closed shell for AlH3
| 10> ! D3    #  dispersion correction
| 11> ! Freq 	# Frequency analysis to check the stabiltity of the structures
| 12>
| 13> ! NoPop # population analysis not necessary
| 14>
| 15> ! RI
| 16> ! DEFGRID2
| 17> ! NormalSCF
| 18> ! SloppyOpt
| 19>
| 20> ! SmallPrint
| 21>
| 22>
| 23> * xyzFile 0 1 start.xyz # only maingroup elements H and Al so there should be no net spin
| 24>
| 25>                          ****END OF INPUT****
 Total Charge           Charge          ....    0
 Multiplicity           Mult            ....    1
 Number of Electrons    NEL             ....  128
Dispersion correction           -0.045149816
FINAL SINGLE POINT ENERGY     -1950.381530407330
Dispersion correction             ... done (  0.1 sec)
Dispersion correction           -0.046517750
FINAL SINGLE POINT ENERGY     -1950.444539651646
Dispersion correction             ... done (  0.1 sec)
Dispersion correction           -0.046164904
FINAL SINGLE POINT ENERGY     -1950.494321297222
Dispersion correction             ... done (  0.1 sec)
FINAL SINGLE POINT ENERGY     -1950.551889767597
FINAL SINGLE POINT ENERGY     -1950.611350546114
FINAL SINGLE POINT ENERGY     -1950.704579372938
FINAL SINGLE POINT ENERGY     -1950.850967667077
FINAL SINGLE POINT ENERGY     -1950.980242657205
FINAL SINGLE POINT ENERGY     -1951.101641062203
FINAL SINGLE POINT ENERGY     -1951.215016603136
FINAL SINGLE POINT ENERGY     -1951.910770379057
FINAL SINGLE POINT ENERGY     -1952.003919319132
FINAL SINGLE POINT ENERGY     -1952.010998697985
FINAL SINGLE POINT ENERGY     -1952.012521875851
FINAL SINGLE POINT ENERGY     -1952.012641573657
FINAL SINGLE POINT ENERGY     -1952.014422555415
FINAL SINGLE POINT ENERGY     -1952.015105400215
Dispersion correction             ... done (  0.1 sec)
Dispersion correction           -0.041281129
FINAL SINGLE POINT ENERGY     -1952.015442655817
Dispersion correction             ... done (  0.1 sec)
Dispersion correction           -0.041288966
FINAL SINGLE POINT ENERGY     -1952.015564332563
Dispersion correction             ... done (  0.1 sec)
                    ***********************HURRAY********************

CARTESIAN COORDINATES (ANGSTROEM)
---------------------------------
  Al    -0.332906    2.463943    0.578736
  Al    -3.025593    1.001793    1.290841
  Al    -0.123072   -0.230578    0.837495
  Al     2.611322    1.379869    0.769039
  Al     0.176653   -0.652540    4.157941
  Al    -2.135224    1.746358    4.447000
  Al     2.288351    1.927696    4.103249
  Al     0.303440    1.289963    6.635284
  H      0.351090    1.333082    8.230530
  H      0.294886   -0.239136    5.950974
  H      1.564231    1.999034    5.834133
  H     -1.065477    1.920062    5.956978
  H     -1.557636    3.051815    3.730676
  H     -3.405061    1.387254    5.348346
  H     -3.103231    1.164850    2.921863
  H     -4.407160    0.727106    0.540961
  H     -1.230498    0.282755    4.080356
  H     -1.907405   -0.215404    1.061059
  H      0.109682   -0.837485    2.417720
  H     -0.149452   -1.501898   -0.133746
  H      1.644296    0.031589    0.612603
  H      2.919691    1.489571    2.378209
  H      3.891922    1.340095   -0.184890
  H      3.758874    1.724409    4.694697
  H      0.253808   -2.204782    4.513991
  H      1.506456    0.374707    3.929698
  H     -0.467859    4.028073    0.337686
  H     -2.166313    2.313960    0.744832
  H      1.504005    2.574077    0.412895
  H     -0.348092    1.132718   -0.466372
  H      1.410363    3.155366    3.575646
  H     -0.124626    1.399810    1.865275

 Multiplicity           Mult            ....    1
 Number of Electrons    NEL             ....  128
 Basis Dimension        Dim             ....  192

ORBITAL ENERGIES
----------------

  NO   OCC          E(Eh)            E(eV)
   0   2.0000     -55.427732     -1508.2653
   1   2.0000     -55.420259     -1508.0619
   2   2.0000     -55.411765     -1507.8308
   3   2.0000     -55.399137     -1507.4871
   4   2.0000     -55.398575     -1507.4719
   5   2.0000     -55.397549     -1507.4439
   6   2.0000     -55.397062     -1507.4307
   7   2.0000     -55.396226     -1507.4079
   8   2.0000      -3.976525      -108.2067
   9   2.0000      -3.967870      -107.9712
  10   2.0000      -3.964342      -107.8752
  11   2.0000      -3.954285      -107.6016
  12   2.0000      -3.953938      -107.5921
  13   2.0000      -3.951979      -107.5388
  14   2.0000      -3.950150      -107.4890
  15   2.0000      -3.949760      -107.4784
  16   2.0000      -2.584244       -70.3209
  17   2.0000      -2.582948       -70.2856
  18   2.0000      -2.579186       -70.1832
  19   2.0000      -2.575202       -70.0748
  20   2.0000      -2.574472       -70.0550
  21   2.0000      -2.572030       -69.9885
  22   2.0000      -2.571936       -69.9859
  23   2.0000      -2.570646       -69.9508
  24   2.0000      -2.565604       -69.8136
  25   2.0000      -2.561650       -69.7060
  26   2.0000      -2.561297       -69.6964
  27   2.0000      -2.560413       -69.6724
  28   2.0000      -2.560115       -69.6643
  29   2.0000      -2.559179       -69.6388
  30   2.0000      -2.558434       -69.6185
  31   2.0000      -2.558287       -69.6145
  32   2.0000      -2.558112       -69.6098
  33   2.0000      -2.557896       -69.6039
  34   2.0000      -2.557420       -69.5909
  35   2.0000      -2.557110       -69.5825
  36   2.0000      -2.556709       -69.5716
  37   2.0000      -2.554753       -69.5184
  38   2.0000      -2.550584       -69.4049
  39   2.0000      -2.550205       -69.3946
  40   2.0000      -0.522088       -14.2067
  41   2.0000      -0.490760       -13.3542
  42   2.0000      -0.458598       -12.4791
  43   2.0000      -0.427312       -11.6277
  44   2.0000      -0.420951       -11.4547
  45   2.0000      -0.412791       -11.2326
  46   2.0000      -0.393047       -10.6954
  47   2.0000      -0.375166       -10.2088
  48   2.0000      -0.346816        -9.4374
  49   2.0000      -0.343519        -9.3476
  50   2.0000      -0.342407        -9.3174
  51   2.0000      -0.329191        -8.9577
  52   2.0000      -0.328196        -8.9307
  53   2.0000      -0.315677        -8.5900
  54   2.0000      -0.303007        -8.2452
  55   2.0000      -0.302305        -8.2261
  56   2.0000      -0.300287        -8.1712
  57   2.0000      -0.282618        -7.6904
  58   2.0000      -0.274115        -7.4590
  59   2.0000      -0.273520        -7.4429
  60   2.0000      -0.271267        -7.3816
  61   2.0000      -0.268753        -7.3131
  62   2.0000      -0.265505        -7.2248
  63   2.0000      -0.253633        -6.9017
  64   0.0000      -0.088073        -2.3966
  65   0.0000      -0.082604        -2.2478
  66   0.0000      -0.072746        -1.9795
  67   0.0000      -0.048844        -1.3291
  68   0.0000      -0.046480        -1.2648

-------
TIMINGS
-------

Dispersion correction           -0.041268888
FINAL SINGLE POINT ENERGY     -1952.015677734493

DIPOLE MOMENT
-------------

Method             : SCF
Type of density    : Electron Density
Multiplicity       :   1
Irrep              :   0
Energy             : -1951.9744088469699363 Eh
Basis              : AO
                                X                 Y                 Z
Electronic contribution:      0.013348897       0.412281361       0.067203465
Nuclear contribution   :     -0.010850611      -0.304050760      -0.091451060
                        -----------------------------------------
Total Dipole Moment    :      0.002498286       0.108230601      -0.024247595
                        -----------------------------------------
Magnitude (a.u.)       :      0.110941653
Magnitude (Debye)      :      0.281991271

VIBRATIONAL FREQUENCIES
-----------------------

Scaling factor for frequencies =  1.000000000  (already applied!)

     0:       0.00 cm**-1
     1:       0.00 cm**-1
     2:       0.00 cm**-1
     3:       0.00 cm**-1
     4:       0.00 cm**-1
     5:       0.00 cm**-1
     6:     -37.74 cm**-1  ***imaginary mode***
     7:      53.67 cm**-1
     8:      79.52 cm**-1
     9:     111.05 cm**-1
    10:     114.94 cm**-1
    11:     128.29 cm**-1
    12:     136.55 cm**-1
    13:     168.18 cm**-1
    14:     171.50 cm**-1
    15:     178.01 cm**-1
    16:     200.11 cm**-1
    17:     208.23 cm**-1
    18:     223.36 cm**-1
    19:     235.85 cm**-1
    20:     241.30 cm**-1
    21:     252.06 cm**-1
    22:     255.21 cm**-1
    23:     275.06 cm**-1
    24:     275.99 cm**-1
    25:     289.75 cm**-1
    26:     300.10 cm**-1
    27:     327.56 cm**-1
    28:     344.57 cm**-1
    29:     352.29 cm**-1
    30:     353.85 cm**-1
    31:     379.12 cm**-1
    32:     407.91 cm**-1
    33:     420.13 cm**-1
    34:     450.74 cm**-1
    35:     460.46 cm**-1
    36:     471.12 cm**-1
    37:     480.51 cm**-1
    38:     524.29 cm**-1
    39:     543.83 cm**-1
    40:     545.11 cm**-1
    41:     559.26 cm**-1
    42:     580.45 cm**-1
    43:     596.37 cm**-1
    44:     605.19 cm**-1
    45:     613.30 cm**-1
    46:     618.20 cm**-1
    47:     630.05 cm**-1
    48:     650.30 cm**-1
    49:     680.50 cm**-1
    50:     698.75 cm**-1
    51:     722.31 cm**-1
    52:     733.77 cm**-1
    53:     748.57 cm**-1
    54:     789.40 cm**-1
    55:     799.49 cm**-1
    56:     814.47 cm**-1
    57:     834.41 cm**-1
    58:     844.79 cm**-1
    59:     859.02 cm**-1
    60:     861.44 cm**-1
    61:     888.17 cm**-1
    62:     897.39 cm**-1
    63:     920.05 cm**-1
    64:     927.52 cm**-1
    65:     950.82 cm**-1
    66:     968.42 cm**-1
    67:     991.37 cm**-1
    68:    1038.67 cm**-1
    69:    1040.24 cm**-1
    70:    1048.94 cm**-1
    71:    1144.17 cm**-1
    72:    1570.80 cm**-1
    73:    1650.09 cm**-1
    74:    1689.39 cm**-1
    75:    1728.54 cm**-1
    76:    1735.43 cm**-1
    77:    1769.51 cm**-1
    78:    1774.71 cm**-1
    79:    1792.74 cm**-1
    80:    1843.81 cm**-1
    81:    1845.72 cm**-1
    82:    1853.51 cm**-1
    83:    1864.03 cm**-1
    84:    1865.65 cm**-1
    85:    1903.12 cm**-1
    86:    1917.11 cm**-1
    87:    1919.15 cm**-1
    88:    1920.12 cm**-1
    89:    1922.80 cm**-1
    90:    1925.20 cm**-1
    91:    1926.79 cm**-1
    92:    1938.62 cm**-1
    93:    1945.36 cm**-1
    94:    1953.58 cm**-1
    95:    1972.09 cm**-1

IR SPECTRUM
-----------

 Mode   freq       eps      Int      T**2         TX        TY        TZ
       cm**-1   L/(mol*cm) km/mol    a.u.
----------------------------------------------------------------------------
  7:     53.67   0.000013    0.06  0.000073  ( 0.005844  0.003870  0.004884)
  8:     79.52   0.000245    1.24  0.000960  (-0.030693 -0.004247  0.000475)
  9:    111.05   0.000032    0.16  0.000091  ( 0.008860 -0.001361 -0.003204)
 10:    114.94   0.000143    0.72  0.000387  ( 0.000371 -0.019609  0.001557)
 11:    128.29   0.000109    0.55  0.000265  ( 0.016191 -0.001749 -0.000386)
 12:    136.55   0.000062    0.32  0.000143  ( 0.006234  0.010193  0.000155)
 13:    168.18   0.000006    0.03  0.000011  ( 0.002617 -0.001610 -0.001359)
 14:    171.50   0.000152    0.77  0.000276  (-0.002184  0.000084 -0.016459)
 15:    178.01   0.000325    1.64  0.000569  ( 0.001306 -0.015312  0.018247)
 16:    200.11   0.000473    2.39  0.000738  ( 0.002563 -0.026744  0.003980)
 17:    208.23   0.000227    1.15  0.000340  (-0.009669  0.013905 -0.007268)
 18:    223.36   0.000406    2.05  0.000568  ( 0.023115  0.002574  0.005171)
 19:    235.85   0.001714    8.66  0.002268  ( 0.037141  0.009141  0.028374)
 20:    241.30   0.002094   10.58  0.002708  (-0.045457 -0.005005  0.024825)
 21:    252.06   0.001008    5.09  0.001248  (-0.030236  0.012118  0.013676)
 22:    255.21   0.001000    5.05  0.001223  (-0.010868 -0.031852 -0.009479)
 23:    275.06   0.000701    3.54  0.000796  (-0.027775  0.004508  0.001978)
 24:    275.99   0.000605    3.06  0.000684  ( 0.006743 -0.020335 -0.015000)
 25:    289.75   0.001223    6.18  0.001317  (-0.033690 -0.001576  0.013391)
 26:    300.10   0.001644    8.31  0.001709  ( 0.019625 -0.000204  0.036387)
 27:    327.56   0.002878   14.55  0.002742  ( 0.001296  0.012154  0.050920)
 28:    344.57   0.002850   14.40  0.002581  ( 0.003562 -0.024083  0.044595)
 29:    352.29   0.001106    5.59  0.000980  ( 0.008981  0.016665 -0.024932)
 30:    353.85   0.001019    5.15  0.000899  (-0.013830  0.023204 -0.012999)
 31:    379.12   0.021941  110.88  0.018060  ( 0.005182  0.003633  0.134240)
 32:    407.91   0.009417   47.59  0.007204  ( 0.084690  0.003132  0.004656)
 33:    420.13   0.001072    5.42  0.000796  (-0.006283 -0.026671  0.006717)
 34:    450.74   0.002299   11.62  0.001592  (-0.037426 -0.005400  0.012725)
 35:    460.46   0.005675   28.68  0.003846  ( 0.014226 -0.052080  0.030521)
 36:    471.12   0.000228    1.15  0.000151  ( 0.003362  0.011810  0.000301)
 37:    480.51   0.004579   23.14  0.002974  (-0.002633  0.049301  0.023153)
 38:    524.29   0.000926    4.68  0.000551  (-0.021630  0.000093 -0.009114)
 39:    543.83   0.008132   41.10  0.004667  (-0.010676  0.038651 -0.055306)
 40:    545.11   0.001443    7.29  0.000826  ( 0.001412  0.016600  0.023423)
 41:    559.26   0.005119   25.87  0.002857  (-0.034937 -0.011642  0.038735)
 42:    580.45   0.000999    5.05  0.000537  ( 0.021869 -0.003992 -0.006564)
 43:    596.37   0.023098  116.73  0.012086  ( 0.109744 -0.003760  0.005343)
 44:    605.19   0.019701   99.56  0.010159  (-0.005508 -0.096316  0.029184)
 45:    613.30   0.001302    6.58  0.000663  (-0.021326  0.009239 -0.011062)
 46:    618.20   0.027126  137.08  0.013693  ( 0.018993 -0.055719 -0.101131)
 47:    630.05   0.017731   89.61  0.008782  ( 0.087983  0.024915  0.020508)
 48:    650.30   0.002137   10.80  0.001026  (-0.022620 -0.014905 -0.017081)
 49:    680.50   0.091244  461.11  0.041842  ( 0.010587  0.024705  0.202781)
 50:    698.75   0.008066   40.76  0.003602  (-0.049026  0.006831  0.033945)
 51:    722.31   0.026205  132.43  0.011322  ( 0.106024  0.008662 -0.002358)
 52:    733.77   0.126233  637.93  0.053685  ( 0.009437 -0.063341  0.222675)
 53:    748.57   0.172754  873.03  0.072018  ( 0.040184  0.019779  0.264597)
 54:    789.40   0.014888   75.24  0.005886  ( 0.018803  0.071454 -0.020649)
 55:    799.49   0.217804  1100.69  0.085015  (-0.289564 -0.020323  0.027462)
 56:    814.47   0.132299  668.58  0.050690  ( 0.223096 -0.010384 -0.028478)
 57:    834.41   0.049800  251.67  0.018625  (-0.075412 -0.057351 -0.098228)
 58:    844.79   0.080770  408.18  0.029836  ( 0.009861 -0.131355 -0.111736)
 59:    859.02   0.016395   82.85  0.005956  (-0.000750 -0.073621 -0.023135)
 60:    861.44   0.029221  147.67  0.010585  ( 0.078774 -0.005431 -0.065959)
 61:    888.17   0.022464  113.52  0.007893  (-0.017053  0.081521 -0.030923)
 62:    897.39   0.002216   11.20  0.000771  ( 0.019148  0.015115 -0.013251)
 63:    920.05   0.054833  277.10  0.018598  (-0.027752 -0.068340 -0.114707)
 64:    927.52   0.011679   59.02  0.003929  ( 0.000833 -0.056835  0.026426)
 65:    950.82   0.003563   18.01  0.001170  ( 0.020384 -0.018007  0.020731)
 66:    968.42   0.076181  384.99  0.024548  (-0.019132  0.147319 -0.049795)
 67:    991.37   0.004753   24.02  0.001496  (-0.036251  0.011515  0.007022)
 68:   1038.67   0.011732   59.29  0.003525  ( 0.059259 -0.003525 -0.000879)
 69:   1040.24   0.029244  147.79  0.008773  ( 0.019201 -0.018770  0.089733)
 70:   1048.94   0.057953  292.87  0.017241  ( 0.126065  0.019028 -0.031413)
 71:   1144.17   0.016274   82.24  0.004439  ( 0.007276 -0.058332  0.031354)
 72:   1570.80   0.031496  159.17  0.006257  ( 0.005151  0.020100  0.076332)
 73:   1650.09   0.010186   51.47  0.001926  (-0.002523  0.018042 -0.039930)
 74:   1689.39   0.014441   72.98  0.002668  (-0.001742  0.045875  0.023665)
 75:   1728.54   0.020804  105.14  0.003756  ( 0.028544 -0.003647  0.054110)
 76:   1735.43   0.015937   80.54  0.002866  ( 0.051368 -0.011696 -0.009509)
 77:   1769.51   0.002469   12.48  0.000435  ( 0.019243  0.006026 -0.005372)
 78:   1774.71   0.023176  117.12  0.004075  (-0.054907 -0.009572  0.031126)
 79:   1792.74   0.110553  558.69  0.019244  (-0.024374  0.108544 -0.082875)
 80:   1843.81   0.169888  858.54  0.028753  (-0.042843 -0.111449 -0.120403)
 81:   1845.72   0.175704  887.93  0.029707  ( 0.125230  0.009753 -0.118022)
 82:   1853.51   0.307709  1555.04  0.051807  ( 0.227020 -0.007161 -0.014748)
 83:   1864.03   0.311050  1571.92  0.052074  ( 0.078842  0.019349  0.213269)
 84:   1865.65   0.067561  341.43  0.011301  ( 0.050795 -0.001390 -0.093374)
 85:   1903.12   0.086440  436.83  0.014174  ( 0.004588 -0.099849  0.064678)
 86:   1917.11   0.001210    6.11  0.000197  (-0.000019 -0.013501 -0.003829)
 87:   1919.15   0.043225  218.44  0.007029  (-0.080949 -0.005586 -0.021089)
 88:   1920.12   0.029962  151.42  0.004869  ( 0.063609 -0.003902 -0.028428)
 89:   1922.80   0.010258   51.84  0.001665  ( 0.000338  0.013569  0.038478)
 90:   1925.20   0.029722  150.20  0.004818  ( 0.012224 -0.022870  0.064383)
 91:   1926.79   0.016634   84.06  0.002694  ( 0.031968  0.033293 -0.023742)
 92:   1938.62   0.021476  108.53  0.003457  (-0.003443  0.045144  0.037513)
 93:   1945.36   0.021683  109.58  0.003478  (-0.057131  0.005143 -0.013707)
 94:   1953.58   0.018607   94.03  0.002972  (-0.005903  0.054186 -0.001108)
 95:   1972.09   0.053179  268.75  0.008415  (-0.002042  0.087944 -0.026015)

--------------------------
THERMOCHEMISTRY AT 298.15K
--------------------------

Temperature         ...   298.15 K
Pressure            ...     1.00 atm
Total Mass          ...   240.05 AMU
Quasi RRHO          ...     True
Cut-Off Frequency   ...     1.00 cm^-1

Throughout the following assumptions are being made:
  (1) The electronic state is orbitally nondegenerate
  (2) There are no thermally accessible electronically excited states
  (3) Hindered rotations indicated by low frequency modes are not
      treated as such but are treated as vibrations and this may
      cause some error
  (4) All equations used are the standard statistical mechanics
      equations for an ideal gas
  (5) All vibrations are strictly harmonic

freq.      53.67  E(vib)   ...       0.52
freq.      79.52  E(vib)   ...       0.49
freq.     111.05  E(vib)   ...       0.45
freq.     114.94  E(vib)   ...       0.44
freq.     128.29  E(vib)   ...       0.43
freq.     136.55  E(vib)   ...       0.42
freq.     168.18  E(vib)   ...       0.38
freq.     171.50  E(vib)   ...       0.38
freq.     178.01  E(vib)   ...       0.37
freq.     200.11  E(vib)   ...       0.35
freq.     208.23  E(vib)   ...       0.34
freq.     223.36  E(vib)   ...       0.33
freq.     235.85  E(vib)   ...       0.32
freq.     241.30  E(vib)   ...       0.31
freq.     252.06  E(vib)   ...       0.30
freq.     255.21  E(vib)   ...       0.30
freq.     275.06  E(vib)   ...       0.28
freq.     275.99  E(vib)   ...       0.28
freq.     289.75  E(vib)   ...       0.27
freq.     300.10  E(vib)   ...       0.26
freq.     327.56  E(vib)   ...       0.24
freq.     344.57  E(vib)   ...       0.23
freq.     352.29  E(vib)   ...       0.23
freq.     353.85  E(vib)   ...       0.22
freq.     379.12  E(vib)   ...       0.21
freq.     407.91  E(vib)   ...       0.19
freq.     420.13  E(vib)   ...       0.18
freq.     450.74  E(vib)   ...       0.17
freq.     460.46  E(vib)   ...       0.16
freq.     471.12  E(vib)   ...       0.15
freq.     480.51  E(vib)   ...       0.15
freq.     524.29  E(vib)   ...       0.13
freq.     543.83  E(vib)   ...       0.12
freq.     545.11  E(vib)   ...       0.12
freq.     559.26  E(vib)   ...       0.12
freq.     580.45  E(vib)   ...       0.11
freq.     596.37  E(vib)   ...       0.10
freq.     605.19  E(vib)   ...       0.10
freq.     613.30  E(vib)   ...       0.10
freq.     618.20  E(vib)   ...       0.09
freq.     630.05  E(vib)   ...       0.09
freq.     650.30  E(vib)   ...       0.08
freq.     680.50  E(vib)   ...       0.08
freq.     698.75  E(vib)   ...       0.07
freq.     722.31  E(vib)   ...       0.07
freq.     733.77  E(vib)   ...       0.06
freq.     748.57  E(vib)   ...       0.06
freq.     789.40  E(vib)   ...       0.05
freq.     799.49  E(vib)   ...       0.05
freq.     814.47  E(vib)   ...       0.05
freq.     834.41  E(vib)   ...       0.04
freq.     844.79  E(vib)   ...       0.04
freq.     859.02  E(vib)   ...       0.04
freq.     861.44  E(vib)   ...       0.04
freq.     888.17  E(vib)   ...       0.04
freq.     897.39  E(vib)   ...       0.03
freq.     920.05  E(vib)   ...       0.03
freq.     927.52  E(vib)   ...       0.03
freq.     950.82  E(vib)   ...       0.03
freq.     968.42  E(vib)   ...       0.03
freq.     991.37  E(vib)   ...       0.02
freq.    1038.67  E(vib)   ...       0.02
freq.    1040.24  E(vib)   ...       0.02
freq.    1048.94  E(vib)   ...       0.02
freq.    1144.17  E(vib)   ...       0.01
freq.    1570.80  E(vib)   ...       0.00
freq.    1650.09  E(vib)   ...       0.00
freq.    1689.39  E(vib)   ...       0.00
freq.    1728.54  E(vib)   ...       0.00
freq.    1735.43  E(vib)   ...       0.00
freq.    1769.51  E(vib)   ...       0.00
freq.    1774.71  E(vib)   ...       0.00
freq.    1792.74  E(vib)   ...       0.00
freq.    1843.81  E(vib)   ...       0.00
freq.    1845.72  E(vib)   ...       0.00
freq.    1853.51  E(vib)   ...       0.00
freq.    1864.03  E(vib)   ...       0.00
freq.    1865.65  E(vib)   ...       0.00
freq.    1903.12  E(vib)   ...       0.00
freq.    1917.11  E(vib)   ...       0.00
freq.    1919.15  E(vib)   ...       0.00
freq.    1920.12  E(vib)   ...       0.00
freq.    1922.80  E(vib)   ...       0.00
freq.    1925.20  E(vib)   ...       0.00
freq.    1926.79  E(vib)   ...       0.00
freq.    1938.62  E(vib)   ...       0.00
freq.    1945.36  E(vib)   ...       0.00
freq.    1953.58  E(vib)   ...       0.00
freq.    1972.09  E(vib)   ...       0.00

------------
INNER ENERGY
------------

The inner energy is: U= E(el) + E(ZPE) + E(vib) + E(rot) + E(trans)
    E(el)   - is the total energy from the electronic structure calculation
              = E(kin-el) + E(nuc-el) + E(el-el) + E(nuc-nuc)
    E(ZPE)  - the the zero temperature vibrational energy from the frequency calculation
    E(vib)  - the the finite temperature correction to E(ZPE) due to population
              of excited vibrational states
    E(rot)  - is the rotational thermal energy
    E(trans)- is the translational thermal energy

Summary of contributions to the inner energy U:
Electronic energy                ...  -1952.01567773 Eh
Zero point energy                ...      0.18053092 Eh     113.28 kcal/mol
Thermal vibrational correction   ...      0.01829643 Eh      11.48 kcal/mol
Thermal rotational correction    ...      0.00141627 Eh       0.89 kcal/mol
Thermal translational correction ...      0.00141627 Eh       0.89 kcal/mol
-----------------------------------------------------------------------
Total thermal energy                  -1951.81401784 Eh

Summary of corrections to the electronic energy:
(perhaps to be used in another calculation)
Total thermal correction                  0.02112898 Eh      13.26 kcal/mol
Non-thermal (ZPE) correction              0.18053092 Eh     113.28 kcal/mol
-----------------------------------------------------------------------
Total correction                          0.20165989 Eh     126.54 kcal/mol

--------
ENTHALPY
--------

The enthalpy is H = U + kB*T
                kB is Boltzmann's constant
Total thermal energy              ...  -1951.81401784 Eh
Thermal Enthalpy correction       ...      0.00094421 Eh       0.59 kcal/mol
-----------------------------------------------------------------------
Total Enthalpy                    ...  -1951.81307363 Eh

Note: Only C1 symmetry has been detected, increase convergence thresholds
      if your molecule has a higher symmetry. Symmetry factor of 1.0 is
      used for the rotational entropy correction.

Note: Rotational entropy computed according to Herzberg
Infrared and Raman Spectra, Chapter V,1, Van Nostrand Reinhold, 1945
Point Group:  C1, Symmetry Number:   1
Rotational constants in cm-1:     0.015792     0.012248     0.008785

                             ****ORCA TERMINATED NORMALLY****
TOTAL RUN TIME: 0 days 0 hours 12 minutes 48 seconds 666 msec
