                         Program Version 6.1.0  -  RELEASE   -
|  1> # Geometry optimization for (AlH3)n cluster
|  2>
|  3> %pal nprocs 24  end
|  4>
|  5> %geom MaxIter 500 end
|  6>
|  7>
|  8> ! PBE def2-SV(P)
|  9> ! RKS	# closed shell for AlH3
| 10> ! D3    #  dispersion correction
| 11> ! gCP(DFT/SV(P))
| 12> ! Freq 	# Frequency analysis to check the stabiltity of the structures
| 13>
| 14> ! NoPop # population analysis not necessary
| 15>
| 16> ! RI
| 17> ! DEFGRID2
| 18> ! NormalSCF
| 19> ! SloppyOpt
| 20>
| 21> ! SmallPrint
| 22>
| 23>
| 24> * xyzFile 0 1 start.xyz # only maingroup elements H and Al so there should be no net spin
| 25>
| 26>                          ****END OF INPUT****
 Total Charge           Charge          ....    0
 Multiplicity           Mult            ....    1
 Number of Electrons    NEL             ....   16
Dispersion correction           -0.001101509
FINAL SINGLE POINT ENERGY      -243.922769799125
Dispersion correction             ... done (  0.1 sec)
Dispersion correction           -0.001090013
FINAL SINGLE POINT ENERGY      -243.936811401897
Dispersion correction             ... done (  0.1 sec)
Dispersion correction           -0.001081181
FINAL SINGLE POINT ENERGY      -243.945624464009
Dispersion correction             ... done (  0.1 sec)
FINAL SINGLE POINT ENERGY      -243.949634655947
Dispersion correction             ... done (  0.1 sec)
Dispersion correction           -0.001075678
FINAL SINGLE POINT ENERGY      -243.950050161151
Dispersion correction             ... done (  0.1 sec)
Dispersion correction           -0.001075870
FINAL SINGLE POINT ENERGY      -243.950078124413
Dispersion correction             ... done (  0.1 sec)
                    ***********************HURRAY********************

CARTESIAN COORDINATES (ANGSTROEM)
---------------------------------
  Al    -1.364535    0.621874   -0.212894
  H     -0.528345    0.412307    1.158840
  H     -1.294631    2.042338   -0.987294
  H     -2.272939   -0.586869   -0.792582

 Multiplicity           Mult            ....    1
 Number of Electrons    NEL             ....   16
 Basis Dimension        Dim             ....   24

ORBITAL ENERGIES
----------------

  NO   OCC          E(Eh)            E(eV)
   0   2.0000     -55.382184     -1507.0258
   1   2.0000      -3.941343      -107.2494
   2   2.0000      -2.554742       -69.5181
   3   2.0000      -2.542738       -69.1914
   4   2.0000      -2.542677       -69.1897
   5   2.0000      -0.374361       -10.1869
   6   2.0000      -0.267702        -7.2845
   7   2.0000      -0.266887        -7.2624
   8   0.0000      -0.093268        -2.5380
   9   0.0000       0.015752         0.4286
  10   0.0000       0.039960         1.0874
  11   0.0000       0.041433         1.1275
  12   0.0000       0.075644         2.0584

-------
TIMINGS
-------

Dispersion correction           -0.001076347
FINAL SINGLE POINT ENERGY      -243.950104253503

DIPOLE MOMENT
-------------

Method             : SCF
Type of density    : Electron Density
Multiplicity       :   1
Irrep              :   0
Energy             :  -243.9593154283459455 Eh
Basis              : AO
                                X                 Y                 Z
Electronic contribution:      0.002731447      -0.002976820      -0.026763397
Nuclear contribution   :     -0.002018172       0.001881161       0.015421724
                        -----------------------------------------
Total Dipole Moment    :      0.000713274      -0.001095659      -0.011341673
                        -----------------------------------------
Magnitude (a.u.)       :      0.011416776
Magnitude (Debye)      :      0.029019138

VIBRATIONAL FREQUENCIES
-----------------------

Scaling factor for frequencies =  1.000000000  (already applied!)

     0:       0.00 cm**-1
     1:       0.00 cm**-1
     2:       0.00 cm**-1
     3:       0.00 cm**-1
     4:       0.00 cm**-1
     5:       0.00 cm**-1
     6:     671.49 cm**-1
     7:     750.00 cm**-1
     8:     753.39 cm**-1
     9:    1853.93 cm**-1
    10:    1871.63 cm**-1
    11:    1874.47 cm**-1

IR SPECTRUM
-----------

 Mode   freq       eps      Int      T**2         TX        TY        TZ
       cm**-1   L/(mol*cm) km/mol    a.u.
----------------------------------------------------------------------------
  6:    671.49   0.060704  306.77  0.028211  (-0.131285  0.055373  0.088935)
  7:    750.00   0.040234  203.32  0.016741  (-0.067002  0.017138 -0.109350)
  8:    753.39   0.039832  201.30  0.016499  (-0.044858 -0.120052  0.008623)
  9:   1853.93   0.000171    0.86  0.000029  (-0.002749  0.000889 -0.004518)
 10:   1871.63   0.048557  245.38  0.008096  ( 0.047034 -0.010648  0.075963)
 11:   1874.47   0.048438  244.79  0.008064  (-0.030696 -0.084083  0.007193)

--------------------------
THERMOCHEMISTRY AT 298.15K
--------------------------

Temperature         ...   298.15 K
Pressure            ...     1.00 atm
Total Mass          ...    30.01 AMU
Quasi RRHO          ...     True
Cut-Off Frequency   ...     1.00 cm^-1

Throughout the following assumptions are being made:
  (1) The electronic state is orbitally nondegenerate
  (2) There are no thermally accessible electronically excited states
  (3) Hindered rotations indicated by low frequency modes are not
      treated as such but are treated as vibrations and this may
      cause some error
  (4) All equations used are the standard statistical mechanics
      equations for an ideal gas
  (5) All vibrations are strictly harmonic

freq.     671.49  E(vib)   ...       0.08
freq.     750.00  E(vib)   ...       0.06
freq.     753.39  E(vib)   ...       0.06
freq.    1853.93  E(vib)   ...       0.00
freq.    1871.63  E(vib)   ...       0.00
freq.    1874.47  E(vib)   ...       0.00

------------
INNER ENERGY
------------

The inner energy is: U= E(el) + E(ZPE) + E(vib) + E(rot) + E(trans)
    E(el)   - is the total energy from the electronic structure calculation
              = E(kin-el) + E(nuc-el) + E(el-el) + E(nuc-nuc)
    E(ZPE)  - the the zero temperature vibrational energy from the frequency calculation
    E(vib)  - the the finite temperature correction to E(ZPE) due to population
              of excited vibrational states
    E(rot)  - is the rotational thermal energy
    E(trans)- is the translational thermal energy

Summary of contributions to the inner energy U:
Electronic energy                ...   -243.95010425 Eh
Zero point energy                ...      0.01771256 Eh      11.11 kcal/mol
Thermal vibrational correction   ...      0.00031489 Eh       0.20 kcal/mol
Thermal rotational correction    ...      0.00141627 Eh       0.89 kcal/mol
Thermal translational correction ...      0.00141627 Eh       0.89 kcal/mol
-----------------------------------------------------------------------
Total thermal energy                   -243.92924426 Eh

Summary of corrections to the electronic energy:
(perhaps to be used in another calculation)
Total thermal correction                  0.00314743 Eh       1.98 kcal/mol
Non-thermal (ZPE) correction              0.01771256 Eh      11.11 kcal/mol
-----------------------------------------------------------------------
Total correction                          0.02085999 Eh      13.09 kcal/mol

--------
ENTHALPY
--------

The enthalpy is H = U + kB*T
                kB is Boltzmann's constant
Total thermal energy              ...   -243.92924426 Eh
Thermal Enthalpy correction       ...      0.00094421 Eh       0.59 kcal/mol
-----------------------------------------------------------------------
Total Enthalpy                    ...   -243.92830006 Eh

Note: Rotational entropy computed according to Herzberg
Infrared and Raman Spectra, Chapter V,1, Van Nostrand Reinhold, 1945
Point Group:  Cs, Symmetry Number:   1
Rotational constants in cm-1:     4.271185     4.229702     2.125194

Vibrational entropy computed according to the QRRHO of S. Grimme
Chem.Eur.J. 2012 18 9955 using a reference frequency of 100.0 cm-1

-------
ENTROPY
-------

The entropy contributions are T*S = T*(S(el)+S(vib)+S(rot)+S(trans))
     S(el)   - electronic entropy
     S(vib)  - vibrational entropy
     S(rot)  - rotational entropy
     S(trans)- translational entropy
The entropies will be listed as multiplied by the temperature to get
units of energy

Electronic entropy                ...      0.00000000 Eh      0.00 kcal/mol
Vibrational entropy               ...      0.00040414 Eh      0.25 kcal/mol
Rotational entropy                ...      0.00778868 Eh      4.89 kcal/mol
Translational entropy             ...      0.01716637 Eh     10.77 kcal/mol
-----------------------------------------------------------------------
Final entropy term                ...      0.02535919 Eh     15.91 kcal/mol

In case the symmetry of your molecule has not been determined correctly
or in case you have a reason to use a different symmetry number we print
out the resulting rotational entropy values for sn=1,12:

 non-linear molecules -----------------------------------
|  sn= 1 | S(rot)=       0.00778868 Eh      4.89 kcal/mol|
|  sn= 2 | S(rot)=       0.00713422 Eh      4.48 kcal/mol|
|  sn= 3 | S(rot)=       0.00675139 Eh      4.24 kcal/mol|
|  sn= 4 | S(rot)=       0.00647977 Eh      4.07 kcal/mol|
|  sn= 5 | S(rot)=       0.00626908 Eh      3.93 kcal/mol|
|  sn= 6 | S(rot)=       0.00609693 Eh      3.83 kcal/mol|
|  sn= 7 | S(rot)=       0.00595139 Eh      3.73 kcal/mol|
|  sn= 8 | S(rot)=       0.00582531 Eh      3.66 kcal/mol|
|  sn= 9 | S(rot)=       0.00571410 Eh      3.59 kcal/mol|
|  sn=10 | S(rot)=       0.00561462 Eh      3.52 kcal/mol|
|  sn=11 | S(rot)=       0.00552463 Eh      3.47 kcal/mol|
|  sn=12 | S(rot)=       0.00544248 Eh      3.42 kcal/mol|
 linear molecules ---------------------------------------
|  Dinfh | S(rot)=       0.00461402 Eh      2.90 kcal/mol|
|  Cinfv | S(rot)=       0.00526848 Eh      3.31 kcal/mol|
 --------------------------------------------------------

-------------------
GIBBS FREE ENERGY
-------------------

The Gibbs free energy is G = H - T*S

Total enthalpy                    ...   -243.92830006 Eh
Total entropy correction          ...     -0.02535919 Eh    -15.91 kcal/mol
-----------------------------------------------------------------------
Final Gibbs free energy         ...   -243.95365925 Eh

For completeness - the Gibbs free energy minus the electronic energy
G-E(el)                           ...     -0.00355500 Eh     -2.23 kcal/mol

                             ****ORCA TERMINATED NORMALLY****
TOTAL RUN TIME: 0 days 0 hours 0 minutes 45 seconds 425 msec
