                         Program Version 6.1.0  -  RELEASE   -
|  1> # Geometry optimization for (AlH3)n cluster
|  2>
|  3> %pal nprocs 24  end
|  4>
|  5> %geom MaxIter 500 end
|  6>
|  7>
|  8> ! PBE def2-TZVP
|  9> ! RKS	# closed shell for AlH3
| 10> ! D3    #  dispersion correction
| 11> ! Freq 	# Frequency analysis to check the stabiltity of the structures
| 12>
| 13> ! NoPop # population analysis not necessary
| 14>
| 15> ! DEFGRID3
| 16> ! TightSCF
| 17> ! TightOpt
| 18>
| 19> ! SmallPrint
| 20>
| 21>
| 22> * xyzFile 0 1 start.xyz # only maingroup elements H and Al so there should be no net spin
| 23>
| 24>                          ****END OF INPUT****
 Total Charge           Charge          ....    0
 Multiplicity           Mult            ....    1
 Number of Electrons    NEL             ....  112
Dispersion correction           -0.033049402
FINAL SINGLE POINT ENERGY     -1708.641511204472
Dispersion correction             ... done (  0.1 sec)
Dispersion correction           -0.033094054
FINAL SINGLE POINT ENERGY     -1708.641572062409
Dispersion correction             ... done (  0.1 sec)
Dispersion correction           -0.033291881
FINAL SINGLE POINT ENERGY     -1708.641703478132
Dispersion correction             ... done (  0.1 sec)
FINAL SINGLE POINT ENERGY     -1708.641721426746
FINAL SINGLE POINT ENERGY     -1708.641791234525
FINAL SINGLE POINT ENERGY     -1708.641805031207
FINAL SINGLE POINT ENERGY     -1708.641817141706
FINAL SINGLE POINT ENERGY     -1708.641825327634
FINAL SINGLE POINT ENERGY     -1708.641831297144
FINAL SINGLE POINT ENERGY     -1708.641835043920
FINAL SINGLE POINT ENERGY     -1708.641860449585
FINAL SINGLE POINT ENERGY     -1708.641860700797
FINAL SINGLE POINT ENERGY     -1708.641860972887
FINAL SINGLE POINT ENERGY     -1708.641861231138
FINAL SINGLE POINT ENERGY     -1708.641861415315
FINAL SINGLE POINT ENERGY     -1708.641861561806
FINAL SINGLE POINT ENERGY     -1708.641861705222
Dispersion correction             ... done (  0.1 sec)
Dispersion correction           -0.033463940
FINAL SINGLE POINT ENERGY     -1708.641861839302
Dispersion correction             ... done (  0.1 sec)
Dispersion correction           -0.033462831
FINAL SINGLE POINT ENERGY     -1708.641861933780
Dispersion correction             ... done (  0.1 sec)
                    ***********************HURRAY********************

CARTESIAN COORDINATES (ANGSTROEM)
---------------------------------
  Al     1.557377   -4.049685    0.608947
  Al     1.624427   -4.007173    3.806389
  Al     0.878389   -0.972874    1.136341
  Al    -0.852223   -2.225910    3.377581
  Al    -1.082086    0.600548    2.148504
  Al    -0.830180    0.405441    5.196395
  Al    -2.458849   -1.840276    6.059167
  H      0.737603   -5.113927   -0.240222
  H      3.138020   -3.865320    0.644982
  H      1.699783   -5.438515    4.495591
  H      2.753017   -2.886436    3.812228
  H      1.036186   -4.285570    2.225601
  H      0.842438   -2.534100    0.327061
  H      2.222265   -0.305282    0.642258
  H     -0.658642   -0.532843    0.657738
  H     -1.239905    1.324419    3.879911
  H     -1.767080   -0.770387    2.826262
  H      0.553113    0.631217    2.310326
  H     -1.995973    1.658246    1.409853
  H     -2.387666   -0.163099    5.574145
  H     -3.977216   -2.061140    6.462929
  H     -1.154747   -2.003975    6.963302
  H     -2.159143   -2.498470    4.544601
  H      0.167179   -3.276489    4.328846
  H      0.674584   -1.700333    2.625062
  H     -1.427087   -3.170217    2.229579
  H     -0.150065   -0.984303    4.599337
  H     -0.088159    1.154193    6.375017

 Multiplicity           Mult            ....    1
 Number of Electrons    NEL             ....  112
 Basis Dimension        Dim             ....  385

ORBITAL ENERGIES
----------------

  NO   OCC          E(Eh)            E(eV)
   0   2.0000     -55.408133     -1507.7319
   1   2.0000     -55.403611     -1507.6089
   2   2.0000     -55.394379     -1507.3577
   3   2.0000     -55.393717     -1507.3397
   4   2.0000     -55.385703     -1507.1216
   5   2.0000     -55.373642     -1506.7934
   6   2.0000     -55.370756     -1506.7149
   7   2.0000      -3.963434      -107.8505
   8   2.0000      -3.963189      -107.8439
   9   2.0000      -3.953186      -107.5717
  10   2.0000      -3.952129      -107.5429
  11   2.0000      -3.946539      -107.3908
  12   2.0000      -3.933951      -107.0483
  13   2.0000      -3.931218      -106.9739
  14   2.0000      -2.567292       -69.8596
  15   2.0000      -2.566825       -69.8469
  16   2.0000      -2.566446       -69.8365
  17   2.0000      -2.565884       -69.8212
  18   2.0000      -2.562587       -69.7315
  19   2.0000      -2.561893       -69.7127
  20   2.0000      -2.557836       -69.6023
  21   2.0000      -2.556153       -69.5565
  22   2.0000      -2.555630       -69.5422
  23   2.0000      -2.555352       -69.5347
  24   2.0000      -2.551779       -69.4374
  25   2.0000      -2.551672       -69.4345
  26   2.0000      -2.550480       -69.4021
  27   2.0000      -2.549136       -69.3655
  28   2.0000      -2.544050       -69.2271
  29   2.0000      -2.539054       -69.0912
  30   2.0000      -2.536631       -69.0252
  31   2.0000      -2.536132       -69.0117
  32   2.0000      -2.534145       -68.9576
  33   2.0000      -2.531546       -68.8869
  34   2.0000      -2.528713       -68.8098
  35   2.0000      -0.526268       -14.3205
  36   2.0000      -0.476026       -12.9533
  37   2.0000      -0.458883       -12.4869
  38   2.0000      -0.422136       -11.4869
  39   2.0000      -0.412865       -11.2346
  40   2.0000      -0.386315       -10.5122
  41   2.0000      -0.381392       -10.3782
  42   2.0000      -0.346933        -9.4405
  43   2.0000      -0.337517        -9.1843
  44   2.0000      -0.333447        -9.0736
  45   2.0000      -0.317712        -8.6454
  46   2.0000      -0.316009        -8.5990
  47   2.0000      -0.309422        -8.4198
  48   2.0000      -0.294839        -8.0230
  49   2.0000      -0.291374        -7.9287
  50   2.0000      -0.287306        -7.8180
  51   2.0000      -0.282303        -7.6819
  52   2.0000      -0.274679        -7.4744
  53   2.0000      -0.265041        -7.2121
  54   2.0000      -0.262388        -7.1399
  55   2.0000      -0.260178        -7.0798
  56   0.0000      -0.092988        -2.5303
  57   0.0000      -0.071358        -1.9418
  58   0.0000      -0.060701        -1.6518
  59   0.0000      -0.058280        -1.5859
  60   0.0000      -0.052316        -1.4236

-------
TIMINGS
-------

Dispersion correction           -0.033462059
FINAL SINGLE POINT ENERGY     -1708.641861998643

DIPOLE MOMENT
-------------

Method             : SCF
Type of density    : Electron Density
Multiplicity       :   1
Irrep              :   0
Energy             : -1708.6083999399661479 Eh
Basis              : AO
                                X                 Y                 Z
Electronic contribution:     -0.897044384       1.262858123       0.644687265
Nuclear contribution   :      0.269144474      -0.482932106      -0.267069380
                        -----------------------------------------
Total Dipole Moment    :     -0.627899910       0.779926017       0.377617885
                        -----------------------------------------
Magnitude (a.u.)       :      1.070111282
Magnitude (Debye)      :      2.720006716

VIBRATIONAL FREQUENCIES
-----------------------

Scaling factor for frequencies =  1.000000000  (already applied!)

     0:       0.00 cm**-1
     1:       0.00 cm**-1
     2:       0.00 cm**-1
     3:       0.00 cm**-1
     4:       0.00 cm**-1
     5:       0.00 cm**-1
     6:      36.90 cm**-1
     7:      53.69 cm**-1
     8:      65.54 cm**-1
     9:      75.00 cm**-1
    10:     100.92 cm**-1
    11:     120.90 cm**-1
    12:     132.01 cm**-1
    13:     135.56 cm**-1
    14:     162.57 cm**-1
    15:     177.32 cm**-1
    16:     193.03 cm**-1
    17:     211.40 cm**-1
    18:     246.80 cm**-1
    19:     260.58 cm**-1
    20:     270.30 cm**-1
    21:     292.09 cm**-1
    22:     306.19 cm**-1
    23:     327.88 cm**-1
    24:     336.69 cm**-1
    25:     364.00 cm**-1
    26:     369.08 cm**-1
    27:     387.73 cm**-1
    28:     405.18 cm**-1
    29:     422.26 cm**-1
    30:     443.06 cm**-1
    31:     456.72 cm**-1
    32:     478.58 cm**-1
    33:     485.08 cm**-1
    34:     504.64 cm**-1
    35:     522.05 cm**-1
    36:     544.50 cm**-1
    37:     553.64 cm**-1
    38:     584.04 cm**-1
    39:     635.07 cm**-1
    40:     657.64 cm**-1
    41:     681.89 cm**-1
    42:     684.13 cm**-1
    43:     697.19 cm**-1
    44:     707.82 cm**-1
    45:     723.20 cm**-1
    46:     728.32 cm**-1
    47:     737.19 cm**-1
    48:     750.57 cm**-1
    49:     759.60 cm**-1
    50:     805.63 cm**-1
    51:     835.93 cm**-1
    52:     891.62 cm**-1
    53:     947.70 cm**-1
    54:     949.97 cm**-1
    55:     968.50 cm**-1
    56:     998.22 cm**-1
    57:    1016.09 cm**-1
    58:    1035.46 cm**-1
    59:    1053.23 cm**-1
    60:    1073.35 cm**-1
    61:    1119.28 cm**-1
    62:    1195.62 cm**-1
    63:    1587.44 cm**-1
    64:    1608.71 cm**-1
    65:    1631.90 cm**-1
    66:    1650.25 cm**-1
    67:    1681.06 cm**-1
    68:    1700.13 cm**-1
    69:    1735.11 cm**-1
    70:    1745.20 cm**-1
    71:    1784.08 cm**-1
    72:    1820.04 cm**-1
    73:    1830.75 cm**-1
    74:    1874.30 cm**-1
    75:    1885.52 cm**-1
    76:    1887.35 cm**-1
    77:    1892.68 cm**-1
    78:    1900.22 cm**-1
    79:    1903.18 cm**-1
    80:    1910.10 cm**-1
    81:    1923.51 cm**-1
    82:    1926.65 cm**-1
    83:    1928.98 cm**-1

IR SPECTRUM
-----------

 Mode   freq       eps      Int      T**2         TX        TY        TZ
       cm**-1   L/(mol*cm) km/mol    a.u.
----------------------------------------------------------------------------
  6:     36.90   0.000056    0.28  0.000471  ( 0.005939  0.002204  0.020757)
  7:     53.69   0.000116    0.59  0.000674  (-0.005537  0.023285 -0.010081)
  8:     65.54   0.000031    0.16  0.000149  (-0.003390 -0.001489 -0.011624)
  9:     75.00   0.000008    0.04  0.000032  (-0.005191  0.001354 -0.001894)
 10:    100.92   0.000538    2.72  0.001664  ( 0.019029  0.033431 -0.013570)
 11:    120.90   0.000286    1.45  0.000739  (-0.021122 -0.012758  0.011404)
 12:    132.01   0.000544    2.75  0.001285  ( 0.017278  0.002525 -0.031310)
 13:    135.56   0.000409    2.06  0.000940  (-0.004608  0.001178  0.030296)
 14:    162.57   0.000047    0.24  0.000090  (-0.006218  0.005280  0.004837)
 15:    177.32   0.000688    3.48  0.001210  ( 0.023505  0.014419 -0.021209)
 16:    193.03   0.001233    6.23  0.001994  ( 0.040844 -0.017945 -0.001954)
 17:    211.40   0.000120    0.61  0.000177  (-0.008790 -0.008244 -0.005655)
 18:    246.80   0.000254    1.29  0.000322  (-0.002871 -0.016561 -0.006262)
 19:    260.58   0.000093    0.47  0.000112  ( 0.008314 -0.005903  0.002761)
 20:    270.30   0.000848    4.29  0.000979  (-0.005646  0.007547 -0.029841)
 21:    292.09   0.000207    1.05  0.000221  ( 0.012072  0.008006 -0.003378)
 22:    306.19   0.002137   10.80  0.002178  ( 0.042845 -0.005461 -0.017665)
 23:    327.88   0.002620   13.24  0.002493  (-0.025545  0.041369  0.011381)
 24:    336.69   0.001212    6.13  0.001123  ( 0.005247 -0.021231  0.025401)
 25:    364.00   0.005206   26.31  0.004463  ( 0.051143 -0.027066 -0.033387)
 26:    369.08   0.001624    8.21  0.001373  ( 0.021881 -0.029905 -0.000471)
 27:    387.73   0.002337   11.81  0.001881  (-0.000720  0.042232  0.009862)
 28:    405.18   0.000538    2.72  0.000415  ( 0.005698  0.017754 -0.008188)
 29:    422.26   0.006345   32.06  0.004689  ( 0.021716  0.005443 -0.064713)
 30:    443.06   0.001138    5.75  0.000802  (-0.002225  0.005070 -0.027765)
 31:    456.72   0.002978   15.05  0.002035  (-0.026735  0.001034  0.036316)
 32:    478.58   0.001536    7.76  0.001001  (-0.006333  0.026830 -0.015540)
 33:    485.08   0.003530   17.84  0.002271  ( 0.007632 -0.021923  0.041621)
 34:    504.64   0.010406   52.59  0.006435  ( 0.027727 -0.070138 -0.027325)
 35:    522.05   0.014710   74.34  0.008793  (-0.011498  0.066036  0.065576)
 36:    544.50   0.006508   32.89  0.003730  ( 0.027165  0.048643 -0.025020)
 37:    553.64   0.015554   78.60  0.008767  (-0.067810  0.016338  0.062465)
 38:    584.04   0.018516   93.57  0.009894  (-0.095208  0.022834  0.017536)
 39:    635.07   0.057217  289.15  0.028115  (-0.096714  0.102682  0.090654)
 40:    657.64   0.223536  1129.66  0.106073  (-0.170685  0.027268  0.276036)
 41:    681.89   0.095474  482.48  0.043693  ( 0.097253 -0.164284  0.085121)
 42:    684.13   0.050062  252.99  0.022836  (-0.011885  0.120656  0.090203)
 43:    697.19   0.075355  380.81  0.033729  (-0.038007  0.156349 -0.088541)
 44:    707.82   0.019580   98.95  0.008632  (-0.062715  0.067930 -0.009195)
 45:    723.20   0.049127  248.27  0.021199  ( 0.034144 -0.135744 -0.040081)
 46:    728.32   0.022546  113.94  0.009660  (-0.033146 -0.053826  0.075263)
 47:    737.19   0.081577  412.26  0.034533  (-0.034690  0.085847  0.161121)
 48:    750.57   0.035460  179.20  0.014743  (-0.045362  0.011521  0.112039)
 49:    759.60   0.013573   68.59  0.005576  ( 0.005943 -0.045649  0.058797)
 50:    805.63   0.052284  264.22  0.020252  ( 0.056812  0.124770  0.038173)
 51:    835.93   0.006601   33.36  0.002464  ( 0.017208  0.017241 -0.043254)
 52:    891.62   0.064012  323.49  0.022404  (-0.073674  0.124035  0.039897)
 53:    947.70   0.026346  133.14  0.008675  (-0.089039 -0.023032  0.014728)
 54:    949.97   0.016180   81.77  0.005315  ( 0.056688  0.041555 -0.019355)
 55:    968.50   0.043111  217.86  0.013891  ( 0.021765 -0.066477 -0.094857)
 56:    998.22   0.033608  169.84  0.010507  (-0.056500  0.010603 -0.084865)
 57:   1016.09   0.032929  166.41  0.010113  ( 0.085069  0.050033  0.019318)
 58:   1035.46   0.002382   12.04  0.000718  ( 0.024837 -0.000436 -0.010038)
 59:   1053.23   0.014830   74.95  0.004394  (-0.020570  0.018534  0.060229)
 60:   1073.35   0.033990  171.77  0.009882  (-0.031317 -0.005086  0.094211)
 61:   1119.28   0.015171   76.67  0.004230  ( 0.022433 -0.043385 -0.042944)
 62:   1195.62   0.030997  156.65  0.008090  ( 0.054186 -0.071575 -0.005591)
 63:   1587.44   0.023971  121.14  0.004712  (-0.059576  0.030756  0.014735)
 64:   1608.71   0.023041  116.44  0.004470  (-0.011636  0.062048 -0.022005)
 65:   1631.90   0.121031  611.64  0.023145  (-0.120458  0.041166  0.083306)
 66:   1650.25   0.052143  263.51  0.009860  (-0.081668  0.053934  0.016786)
 67:   1681.06   0.033974  171.69  0.006307  (-0.006045 -0.074860  0.025811)
 68:   1700.13   0.208401  1053.17  0.038253  (-0.070831  0.168445  0.069728)
 69:   1735.11   0.144500  730.25  0.025989  (-0.054360 -0.022173  0.150140)
 70:   1745.20   0.093877  474.42  0.016786  (-0.107764  0.071096 -0.010898)
 71:   1784.08   0.148692  751.43  0.026009  (-0.027934 -0.088291  0.132034)
 72:   1820.04   0.077430  391.30  0.013276  (-0.025085 -0.085766  0.072740)
 73:   1830.75   0.157073  793.78  0.026774  ( 0.011409  0.084010  0.139951)
 74:   1874.30   0.009230   46.64  0.001537  (-0.037286 -0.001533 -0.012006)
 75:   1885.52   0.007636   38.59  0.001264  ( 0.025308 -0.017632  0.017674)
 76:   1887.35   0.007570   38.26  0.001252  ( 0.032137  0.006754 -0.013165)
 77:   1892.68   0.024889  125.78  0.004104  ( 0.020854 -0.025744  0.054827)
 78:   1900.22   0.037343  188.72  0.006133  (-0.028840 -0.071622 -0.013088)
 79:   1903.18   0.019168   96.87  0.003143  (-0.043930 -0.034784  0.001800)
 80:   1910.10   0.024373  123.17  0.003982  ( 0.062116  0.010235 -0.004338)
 81:   1923.51   0.024989  126.29  0.004054  (-0.056029  0.027651 -0.012262)
 82:   1926.65   0.020190  102.03  0.003270  ( 0.000981  0.017646  0.054386)
 83:   1928.98   0.020256  102.36  0.003277  (-0.038915 -0.041888  0.002813)

--------------------------
THERMOCHEMISTRY AT 298.15K
--------------------------

Temperature         ...   298.15 K
Pressure            ...     1.00 atm
Total Mass          ...   210.04 AMU
Quasi RRHO          ...     True
Cut-Off Frequency   ...     1.00 cm^-1

Throughout the following assumptions are being made:
  (1) The electronic state is orbitally nondegenerate
  (2) There are no thermally accessible electronically excited states
  (3) Hindered rotations indicated by low frequency modes are not
      treated as such but are treated as vibrations and this may
      cause some error
  (4) All equations used are the standard statistical mechanics
      equations for an ideal gas
  (5) All vibrations are strictly harmonic

freq.      36.90  E(vib)   ...       0.54
freq.      53.69  E(vib)   ...       0.52
freq.      65.54  E(vib)   ...       0.50
freq.      75.00  E(vib)   ...       0.49
freq.     100.92  E(vib)   ...       0.46
freq.     120.90  E(vib)   ...       0.44
freq.     132.01  E(vib)   ...       0.42
freq.     135.56  E(vib)   ...       0.42
freq.     162.57  E(vib)   ...       0.39
freq.     177.32  E(vib)   ...       0.37
freq.     193.03  E(vib)   ...       0.36
freq.     211.40  E(vib)   ...       0.34
freq.     246.80  E(vib)   ...       0.31
freq.     260.58  E(vib)   ...       0.30
freq.     270.30  E(vib)   ...       0.29
freq.     292.09  E(vib)   ...       0.27
freq.     306.19  E(vib)   ...       0.26
freq.     327.88  E(vib)   ...       0.24
freq.     336.69  E(vib)   ...       0.24
freq.     364.00  E(vib)   ...       0.22
freq.     369.08  E(vib)   ...       0.21
freq.     387.73  E(vib)   ...       0.20
freq.     405.18  E(vib)   ...       0.19
freq.     422.26  E(vib)   ...       0.18
freq.     443.06  E(vib)   ...       0.17
freq.     456.72  E(vib)   ...       0.16
freq.     478.58  E(vib)   ...       0.15
freq.     485.08  E(vib)   ...       0.15
freq.     504.64  E(vib)   ...       0.14
freq.     522.05  E(vib)   ...       0.13
freq.     544.50  E(vib)   ...       0.12
freq.     553.64  E(vib)   ...       0.12
freq.     584.04  E(vib)   ...       0.11
freq.     635.07  E(vib)   ...       0.09
freq.     657.64  E(vib)   ...       0.08
freq.     681.89  E(vib)   ...       0.08
freq.     684.13  E(vib)   ...       0.07
freq.     697.19  E(vib)   ...       0.07
freq.     707.82  E(vib)   ...       0.07
freq.     723.20  E(vib)   ...       0.07
freq.     728.32  E(vib)   ...       0.06
freq.     737.19  E(vib)   ...       0.06
freq.     750.57  E(vib)   ...       0.06
freq.     759.60  E(vib)   ...       0.06
freq.     805.63  E(vib)   ...       0.05
freq.     835.93  E(vib)   ...       0.04
freq.     891.62  E(vib)   ...       0.03
freq.     947.70  E(vib)   ...       0.03
freq.     949.97  E(vib)   ...       0.03
freq.     968.50  E(vib)   ...       0.03
freq.     998.22  E(vib)   ...       0.02
freq.    1016.09  E(vib)   ...       0.02
freq.    1035.46  E(vib)   ...       0.02
freq.    1053.23  E(vib)   ...       0.02
freq.    1073.35  E(vib)   ...       0.02
freq.    1119.28  E(vib)   ...       0.01
freq.    1195.62  E(vib)   ...       0.01
freq.    1587.44  E(vib)   ...       0.00
freq.    1608.71  E(vib)   ...       0.00
freq.    1631.90  E(vib)   ...       0.00
freq.    1650.25  E(vib)   ...       0.00
freq.    1681.06  E(vib)   ...       0.00
freq.    1700.13  E(vib)   ...       0.00
freq.    1735.11  E(vib)   ...       0.00
freq.    1745.20  E(vib)   ...       0.00
freq.    1784.08  E(vib)   ...       0.00
freq.    1820.04  E(vib)   ...       0.00
freq.    1830.75  E(vib)   ...       0.00
freq.    1874.30  E(vib)   ...       0.00
freq.    1885.52  E(vib)   ...       0.00
freq.    1887.35  E(vib)   ...       0.00
freq.    1892.68  E(vib)   ...       0.00
freq.    1900.22  E(vib)   ...       0.00
freq.    1903.18  E(vib)   ...       0.00
freq.    1910.10  E(vib)   ...       0.00
freq.    1923.51  E(vib)   ...       0.00
freq.    1926.65  E(vib)   ...       0.00
freq.    1928.98  E(vib)   ...       0.00

------------
INNER ENERGY
------------

The inner energy is: U= E(el) + E(ZPE) + E(vib) + E(rot) + E(trans)
    E(el)   - is the total energy from the electronic structure calculation
              = E(kin-el) + E(nuc-el) + E(el-el) + E(nuc-nuc)
    E(ZPE)  - the the zero temperature vibrational energy from the frequency calculation
    E(vib)  - the the finite temperature correction to E(ZPE) due to population
              of excited vibrational states
    E(rot)  - is the rotational thermal energy
    E(trans)- is the translational thermal energy

Summary of contributions to the inner energy U:
Electronic energy                ...  -1708.64186200 Eh
Zero point energy                ...      0.15602327 Eh      97.91 kcal/mol
Thermal vibrational correction   ...      0.01678377 Eh      10.53 kcal/mol
Thermal rotational correction    ...      0.00141627 Eh       0.89 kcal/mol
Thermal translational correction ...      0.00141627 Eh       0.89 kcal/mol
-----------------------------------------------------------------------
Total thermal energy                  -1708.46622241 Eh

Summary of corrections to the electronic energy:
(perhaps to be used in another calculation)
Total thermal correction                  0.01961632 Eh      12.31 kcal/mol
Non-thermal (ZPE) correction              0.15602327 Eh      97.91 kcal/mol
-----------------------------------------------------------------------
Total correction                          0.17563959 Eh     110.22 kcal/mol

--------
ENTHALPY
--------

The enthalpy is H = U + kB*T
                kB is Boltzmann's constant
Total thermal energy              ...  -1708.46622241 Eh
Thermal Enthalpy correction       ...      0.00094421 Eh       0.59 kcal/mol
-----------------------------------------------------------------------
Total Enthalpy                    ...  -1708.46527820 Eh

Note: Only C1 symmetry has been detected, increase convergence thresholds
      if your molecule has a higher symmetry. Symmetry factor of 1.0 is
      used for the rotational entropy correction.

Note: Rotational entropy computed according to Herzberg
Infrared and Raman Spectra, Chapter V,1, Van Nostrand Reinhold, 1945
Point Group:  C1, Symmetry Number:   1
Rotational constants in cm-1:     0.024173     0.012914     0.009646

Vibrational entropy computed according to the QRRHO of S. Grimme
Chem.Eur.J. 2012 18 9955 using a reference frequency of 100.0 cm-1

-------
ENTROPY
-------

The entropy contributions are T*S = T*(S(el)+S(vib)+S(rot)+S(trans))
     S(el)   - electronic entropy

                             ****ORCA TERMINATED NORMALLY****
TOTAL RUN TIME: 0 days 0 hours 21 minutes 41 seconds 917 msec
