                         Program Version 6.1.0  -  RELEASE   -
|  1> # Geometry optimization for (AlH3)n cluster
|  2>
|  3> %pal nprocs 24  end
|  4>
|  5> %geom MaxIter 500 end
|  6>
|  7> %cpcm
|  8> 	epsilon 1.95778548766667
|  9> end
| 10>
| 11> %elprop Polar 1 end # invoke raman
| 12>
| 13> ! PBEh-3c
| 14> ! RKS	# closed shell for AlH3
| 15> ! Freq 	# Frequency analysis to check the stabiltity of the structures
| 16>
| 17>
| 18> ! NoPop # population analysis not necessary
| 19>
| 20> ! DEFGRID3
| 21> ! ExtremeSCF
| 22> ! VeryTightOpt
| 23>
| 24>
| 25> ! SmallPrint
| 26>
| 27>
| 28> * xyzFile 0 1 start.xyz # only maingroup elements H and Al so there should be no net spin
| 29>
| 30>                          ****END OF INPUT****
 Total Charge           Charge          ....    0
 Multiplicity           Mult            ....    1
 Number of Electrons    NEL             ....   96
Dispersion correction           -0.012266289
FINAL SINGLE POINT ENERGY     -1463.391463215332
Dispersion correction             ... done (  0.3 sec)
Dispersion correction           -0.012300775
FINAL SINGLE POINT ENERGY     -1463.392302677827
Dispersion correction             ... done (  0.1 sec)
Dispersion correction           -0.012389219
FINAL SINGLE POINT ENERGY     -1463.393348674334
Dispersion correction             ... done (  0.1 sec)
FINAL SINGLE POINT ENERGY     -1463.393446184226
FINAL SINGLE POINT ENERGY     -1463.393754696647
FINAL SINGLE POINT ENERGY     -1463.393821098652
FINAL SINGLE POINT ENERGY     -1463.393914231839
FINAL SINGLE POINT ENERGY     -1463.393971454624
FINAL SINGLE POINT ENERGY     -1463.393995562032
FINAL SINGLE POINT ENERGY     -1463.394006985154
FINAL SINGLE POINT ENERGY     -1463.394109166639
FINAL SINGLE POINT ENERGY     -1463.394109201184
FINAL SINGLE POINT ENERGY     -1463.394109232310
FINAL SINGLE POINT ENERGY     -1463.394109261195
FINAL SINGLE POINT ENERGY     -1463.394109284112
FINAL SINGLE POINT ENERGY     -1463.394109303046
FINAL SINGLE POINT ENERGY     -1463.394109315312
Dispersion correction             ... done (  0.1 sec)
Dispersion correction           -0.012153911
FINAL SINGLE POINT ENERGY     -1463.394109323265
Dispersion correction             ... done (  0.1 sec)
Dispersion correction           -0.012153965
FINAL SINGLE POINT ENERGY     -1463.394109330001
Dispersion correction             ... done (  0.1 sec)
                    ***********************HURRAY********************

CARTESIAN COORDINATES (ANGSTROEM)
---------------------------------
  Al    -0.043058    1.173966    3.094182
  Al     0.315995   -0.286552    0.388857
  H      1.348387   -1.535941    0.850404
  H     -1.167113   -0.766364    0.627597
  H      0.760631    0.698250    1.681850
  H     -1.420090    1.820173    2.680345
  H     -0.383720   -0.360108    3.667118
  H      0.919778    0.357323   -0.912237
  Al     1.086744   -3.094430    1.456434
  H      0.215754   -2.650408    2.815460
  H      0.078702   -3.831302    0.493836
  H      1.063712    1.837074    3.998115
  Al     0.638424   -1.654577    4.152540
  H     -0.919577   -2.278156    4.695651
  H      2.055600   -1.115194    3.694512
  H      2.507770   -3.616401    1.892170
  Al    -1.785107   -2.789746    6.012637
  H     -2.286487   -4.265358    5.793250
  H     -2.581830   -1.582676    6.634167
  Al     1.132875   -2.430610    6.602410
  H      2.227040   -2.553958    7.709976
  H      0.737127   -0.989290    5.899113
  H      1.293554   -3.123963    5.113140
  H     -0.378750   -2.966373    7.025303

 Multiplicity           Mult            ....    1
 Number of Electrons    NEL             ....   96
 Basis Dimension        Dim             ....  144

ORBITAL ENERGIES
----------------

  NO   OCC          E(Eh)            E(eV)
   0   2.0000     -56.652116     -1541.5824
   1   2.0000     -56.637287     -1541.1789
   2   2.0000     -56.618429     -1540.6658
   3   2.0000     -56.613101     -1540.5208
   4   2.0000     -56.609377     -1540.4195
   5   2.0000     -56.609203     -1540.4147
   6   2.0000      -4.383303      -119.2757
   7   2.0000      -4.378850      -119.1546
   8   2.0000      -4.359258      -118.6214
   9   2.0000      -4.354091      -118.4808
  10   2.0000      -4.350079      -118.3717
  11   2.0000      -4.349962      -118.3685
  12   2.0000      -2.873809       -78.2003
  13   2.0000      -2.873639       -78.1957
  14   2.0000      -2.869829       -78.0920
  15   2.0000      -2.868724       -78.0620
  16   2.0000      -2.868657       -78.0601
  17   2.0000      -2.864456       -77.9458
  18   2.0000      -2.850566       -77.5678
  19   2.0000      -2.847927       -77.4960
  20   2.0000      -2.844937       -77.4147
  21   2.0000      -2.844144       -77.3931
  22   2.0000      -2.843181       -77.3669
  23   2.0000      -2.840904       -77.3049
  24   2.0000      -2.840787       -77.3017
  25   2.0000      -2.839142       -77.2570
  26   2.0000      -2.839104       -77.2559
  27   2.0000      -2.838985       -77.2527
  28   2.0000      -2.835233       -77.1506
  29   2.0000      -2.835110       -77.1473
  30   2.0000      -0.629042       -17.1171
  31   2.0000      -0.576589       -15.6898
  32   2.0000      -0.525462       -14.2986
  33   2.0000      -0.515452       -14.0262
  34   2.0000      -0.498193       -13.5565
  35   2.0000      -0.447912       -12.1883
  36   2.0000      -0.430758       -11.7215
  37   2.0000      -0.409128       -11.1329
  38   2.0000      -0.399451       -10.8696
  39   2.0000      -0.392866       -10.6904
  40   2.0000      -0.389375       -10.5954
  41   2.0000      -0.379643       -10.3306
  42   2.0000      -0.368601       -10.0301
  43   2.0000      -0.364828        -9.9275
  44   2.0000      -0.360286        -9.8039
  45   2.0000      -0.353291        -9.6135
  46   2.0000      -0.345352        -9.3975
  47   2.0000      -0.329456        -8.9649
  48   0.0000      -0.030518        -0.8304
  49   0.0000      -0.005553        -0.1511
  50   0.0000      -0.001261        -0.0343
  51   0.0000       0.001751         0.0476
  52   0.0000       0.017436         0.4745

-------
TIMINGS
-------

Dispersion correction           -0.012153964
FINAL SINGLE POINT ENERGY     -1463.394109334960

DIPOLE MOMENT
-------------

Method             : SCF
Type of density    : Electron Density
Multiplicity       :   1
Irrep              :   0
Energy             : -1463.4262788707001164 Eh
Basis              : AO
                                X                 Y                 Z
Electronic contribution:      0.061347476      -0.767756090       1.902909971
Nuclear contribution   :      0.028726810       0.282461190      -0.665478544
                        -----------------------------------------
Total Dipole Moment    :      0.090074287      -0.485294899       1.237431427
                        -----------------------------------------
Magnitude (a.u.)       :      1.332239113
Magnitude (Debye)      :      3.386282712

VIBRATIONAL FREQUENCIES
-----------------------

Scaling factor for frequencies =  1.000000000  (already applied!)

     0:       0.00 cm**-1
     1:       0.00 cm**-1
     2:       0.00 cm**-1
     3:       0.00 cm**-1
     4:       0.00 cm**-1
     5:       0.00 cm**-1
     6:      22.27 cm**-1
     7:      36.13 cm**-1
     8:      48.33 cm**-1
     9:      78.45 cm**-1
    10:     100.05 cm**-1
    11:     130.11 cm**-1
    12:     133.50 cm**-1
    13:     152.56 cm**-1
    14:     178.38 cm**-1
    15:     207.94 cm**-1
    16:     229.10 cm**-1
    17:     243.66 cm**-1
    18:     273.34 cm**-1
    19:     301.98 cm**-1
    20:     333.28 cm**-1
    21:     364.41 cm**-1
    22:     372.88 cm**-1
    23:     390.35 cm**-1
    24:     403.89 cm**-1
    25:     409.51 cm**-1
    26:     415.14 cm**-1
    27:     454.67 cm**-1
    28:     475.21 cm**-1
    29:     509.31 cm**-1
    30:     530.41 cm**-1
    31:     562.29 cm**-1
    32:     580.05 cm**-1
    33:     606.98 cm**-1
    34:     674.49 cm**-1
    35:     679.96 cm**-1
    36:     691.06 cm**-1
    37:     704.61 cm**-1
    38:     711.11 cm**-1
    39:     723.96 cm**-1
    40:     746.72 cm**-1
    41:     755.04 cm**-1
    42:     762.76 cm**-1
    43:     812.12 cm**-1
    44:     853.20 cm**-1
    45:     872.20 cm**-1
    46:     961.80 cm**-1
    47:    1008.88 cm**-1
    48:    1052.02 cm**-1
    49:    1078.13 cm**-1
    50:    1109.71 cm**-1
    51:    1120.48 cm**-1
    52:    1154.95 cm**-1
    53:    1201.81 cm**-1
    54:    1663.03 cm**-1
    55:    1735.93 cm**-1
    56:    1762.64 cm**-1
    57:    1805.07 cm**-1
    58:    1841.63 cm**-1
    59:    1881.03 cm**-1
    60:    1922.38 cm**-1
    61:    1933.75 cm**-1
    62:    1991.73 cm**-1
    63:    1995.54 cm**-1
    64:    1996.25 cm**-1
    65:    2001.62 cm**-1
    66:    2002.33 cm**-1
    67:    2004.97 cm**-1
    68:    2009.49 cm**-1
    69:    2017.08 cm**-1
    70:    2026.35 cm**-1
    71:    2058.65 cm**-1

IR SPECTRUM
-----------

 Mode   freq       eps      Int      T**2         TX        TY        TZ
       cm**-1   L/(mol*cm) km/mol    a.u.
----------------------------------------------------------------------------
  6:     22.27   0.000167    0.85  0.002343  ( 0.006324 -0.045641 -0.014839)
  7:     36.13   0.000040    0.20  0.000343  (-0.005985  0.014570 -0.009764)
  8:     48.33   0.000085    0.43  0.000550  (-0.003716  0.020479  0.010805)
  9:     78.45   0.000051    0.26  0.000203  ( 0.003997 -0.001055  0.013637)
 10:    100.05   0.000265    1.34  0.000825  (-0.028003 -0.001201 -0.006306)
 11:    130.11   0.000208    1.05  0.000499  ( 0.003730  0.021683  0.003854)
 12:    133.50   0.001317    6.65  0.003078  ( 0.014326 -0.050850 -0.016948)
 13:    152.56   0.000082    0.42  0.000169  (-0.003467  0.010977  0.006008)
 14:    178.38   0.000264    1.33  0.000462  ( 0.012977 -0.001386  0.017072)
 15:    207.94   0.000947    4.79  0.001421  ( 0.006655 -0.026282  0.026195)
 16:    229.10   0.003037   15.35  0.004137  ( 0.000531 -0.001281  0.064304)
 17:    243.66   0.000861    4.35  0.001102  (-0.003031  0.006717  0.032376)
 18:    273.34   0.002353   11.89  0.002686  ( 0.010078  0.027115 -0.043002)
 19:    301.98   0.000763    3.85  0.000788  ( 0.005904 -0.025306  0.010621)
 20:    333.28   0.002301   11.63  0.002155  (-0.002243  0.015251 -0.043784)
 21:    364.41   0.002037   10.29  0.001744  (-0.038464 -0.014884  0.006574)
 22:    372.88   0.000176    0.89  0.000148  (-0.007297 -0.009231  0.003039)
 23:    390.35   0.014952   75.56  0.011953  (-0.075186 -0.045334  0.065155)
 24:    403.89   0.000071    0.36  0.000055  ( 0.004299 -0.004212 -0.004357)
 25:    409.51   0.005482   27.71  0.004178  (-0.034188 -0.026489  0.048034)
 26:    415.14   0.000291    1.47  0.000219  (-0.005213 -0.010530  0.008993)
 27:    454.67   0.005007   25.31  0.003437  ( 0.024646 -0.012029  0.051814)
 28:    475.21   0.000463    2.34  0.000304  ( 0.000327 -0.017428 -0.000157)
 29:    509.31   0.049221  248.74  0.030158  ( 0.075499  0.074343 -0.137591)
 30:    530.41   0.000529    2.67  0.000311  ( 0.002631  0.017099 -0.003460)
 31:    562.29   0.031457  158.97  0.017458  (-0.047951 -0.033241  0.118548)
 32:    580.05   0.042444  214.49  0.022835  (-0.027153  0.146207  0.026852)
 33:    606.98   0.044900  226.90  0.023084  ( 0.057352  0.038417 -0.135348)
 34:    674.49   0.226083  1142.53  0.104601  (-0.086639  0.269304  0.156746)
 35:    679.96   0.064684  326.88  0.029686  ( 0.043665 -0.141735 -0.087698)
 36:    691.06   0.172506  871.78  0.077899  ( 0.031693  0.122656 -0.248698)
 37:    704.61   0.104431  527.75  0.046251  ( 0.168556  0.131963 -0.020639)
 38:    711.11   0.112479  568.42  0.049360  (-0.152563  0.159735 -0.023868)
 39:    723.96   0.124881  631.10  0.053830  ( 0.092034 -0.032434  0.210494)
 40:    746.72   0.112574  568.90  0.047046  (-0.016779 -0.086432  0.198227)
 41:    755.04   0.018184   91.90  0.007516  ( 0.022863 -0.083621  0.000776)
 42:    762.76   0.008141   41.14  0.003330  (-0.012640  0.051505  0.022758)
 43:    812.12   0.039048  197.33  0.015005  ( 0.092911 -0.006392  0.079569)
 44:    853.20   0.085682  433.00  0.031339  ( 0.143918 -0.043013  0.093681)
 45:    872.20   0.058630  296.29  0.020977  ( 0.033009  0.120495  0.073269)
 46:    961.80   0.074222  375.09  0.024082  (-0.009877 -0.023708  0.153044)
 47:   1008.88   0.040227  203.29  0.012443  ( 0.031165 -0.104481 -0.023565)
 48:   1052.02   0.000523    2.64  0.000155  ( 0.012078 -0.003024  0.000078)
 49:   1078.13   0.055425  280.10  0.016043  (-0.118624 -0.041465  0.015872)
 50:   1109.71   0.019270   97.38  0.005419  ( 0.063755 -0.035575 -0.009419)
 51:   1120.48   0.087605  442.72  0.024399  (-0.145618 -0.051533 -0.023207)
 52:   1154.95   0.017654   89.22  0.004770  (-0.027716  0.028678 -0.056386)
 53:   1201.81   0.128349  648.62  0.033327  ( 0.009139 -0.065480  0.170165)
 54:   1663.03   0.042896  216.78  0.008049  (-0.019281  0.083927  0.025175)
 55:   1735.93   0.060831  307.41  0.010935  ( 0.018013  0.031240 -0.098158)
 56:   1762.64   0.479755  2424.48  0.084937  (-0.075529 -0.095258  0.264874)
 57:   1805.07   0.021299  107.64  0.003682  (-0.008993  0.058195 -0.014649)
 58:   1841.63   0.178969  904.44  0.030326  (-0.171424 -0.027226 -0.014099)
 59:   1881.03   0.489541  2473.94  0.081215  (-0.063354  0.259528  0.099229)
 60:   1922.38   0.144539  730.44  0.023463  (-0.032370  0.055933 -0.138878)
 61:   1933.75   0.102006  515.49  0.016461  ( 0.115404  0.037432 -0.041739)
 62:   1991.73   0.034517  174.44  0.005408  ( 0.070205  0.001888  0.021813)
 63:   1995.54   0.076506  386.63  0.011964  ( 0.065844 -0.018898  0.085273)
 64:   1996.25   0.007643   38.62  0.001195  ( 0.019013 -0.009524  0.027250)
 65:   2001.62   0.019247   97.26  0.003001  (-0.049876 -0.022046 -0.005199)
 66:   2002.33   0.006258   31.63  0.000975  (-0.022334 -0.021461  0.003996)
 67:   2004.97   0.057280  289.47  0.008915  ( 0.087200  0.023901 -0.027209)
 68:   2009.49   0.059860  302.51  0.009296  ( 0.005211 -0.092080 -0.028108)
 69:   2017.08   0.007812   39.48  0.001209  (-0.034463 -0.003512  0.002928)
 70:   2026.35   0.017420   88.04  0.002683  ( 0.046703 -0.005128  0.021802)
 71:   2058.65   0.018863   95.32  0.002859  ( 0.030189 -0.006575  0.043643)

--------------------------
THERMOCHEMISTRY AT 298.15K
--------------------------

Temperature         ...   298.15 K
Pressure            ...     1.00 atm
Total Mass          ...   180.04 AMU
Quasi RRHO          ...     True
Cut-Off Frequency   ...     1.00 cm^-1

Throughout the following assumptions are being made:
  (1) The electronic state is orbitally nondegenerate
  (2) There are no thermally accessible electronically excited states
  (3) Hindered rotations indicated by low frequency modes are not
      treated as such but are treated as vibrations and this may
      cause some error
  (4) All equations used are the standard statistical mechanics
      equations for an ideal gas
  (5) All vibrations are strictly harmonic

freq.      22.27  E(vib)   ...       0.56
freq.      36.13  E(vib)   ...       0.54
freq.      48.33  E(vib)   ...       0.53
freq.      78.45  E(vib)   ...       0.49
freq.     100.05  E(vib)   ...       0.46
freq.     130.11  E(vib)   ...       0.43
freq.     133.50  E(vib)   ...       0.42
freq.     152.56  E(vib)   ...       0.40
freq.     178.38  E(vib)   ...       0.37
freq.     207.94  E(vib)   ...       0.34
freq.     229.10  E(vib)   ...       0.32
freq.     243.66  E(vib)   ...       0.31
freq.     273.34  E(vib)   ...       0.29
freq.     301.98  E(vib)   ...       0.26
freq.     333.28  E(vib)   ...       0.24
freq.     364.41  E(vib)   ...       0.22
freq.     372.88  E(vib)   ...       0.21
freq.     390.35  E(vib)   ...       0.20
freq.     403.89  E(vib)   ...       0.19
freq.     409.51  E(vib)   ...       0.19
freq.     415.14  E(vib)   ...       0.19
freq.     454.67  E(vib)   ...       0.16
freq.     475.21  E(vib)   ...       0.15
freq.     509.31  E(vib)   ...       0.14
freq.     530.41  E(vib)   ...       0.13
freq.     562.29  E(vib)   ...       0.11
freq.     580.05  E(vib)   ...       0.11
freq.     606.98  E(vib)   ...       0.10
freq.     674.49  E(vib)   ...       0.08
freq.     679.96  E(vib)   ...       0.08
freq.     691.06  E(vib)   ...       0.07
freq.     704.61  E(vib)   ...       0.07
freq.     711.11  E(vib)   ...       0.07
freq.     723.96  E(vib)   ...       0.06
freq.     746.72  E(vib)   ...       0.06
freq.     755.04  E(vib)   ...       0.06
freq.     762.76  E(vib)   ...       0.06
freq.     812.12  E(vib)   ...       0.05
freq.     853.20  E(vib)   ...       0.04
freq.     872.20  E(vib)   ...       0.04
freq.     961.80  E(vib)   ...       0.03
freq.    1008.88  E(vib)   ...       0.02
freq.    1052.02  E(vib)   ...       0.02
freq.    1078.13  E(vib)   ...       0.02
freq.    1109.71  E(vib)   ...       0.02
freq.    1120.48  E(vib)   ...       0.01
freq.    1154.95  E(vib)   ...       0.01
freq.    1201.81  E(vib)   ...       0.01
freq.    1663.03  E(vib)   ...       0.00
freq.    1735.93  E(vib)   ...       0.00
freq.    1762.64  E(vib)   ...       0.00
freq.    1805.07  E(vib)   ...       0.00
freq.    1841.63  E(vib)   ...       0.00
freq.    1881.03  E(vib)   ...       0.00
freq.    1922.38  E(vib)   ...       0.00
freq.    1933.75  E(vib)   ...       0.00
freq.    1991.73  E(vib)   ...       0.00
freq.    1995.54  E(vib)   ...       0.00
freq.    1996.25  E(vib)   ...       0.00
freq.    2001.62  E(vib)   ...       0.00
freq.    2002.33  E(vib)   ...       0.00
freq.    2004.97  E(vib)   ...       0.00
freq.    2009.49  E(vib)   ...       0.00
freq.    2017.08  E(vib)   ...       0.00
freq.    2026.35  E(vib)   ...       0.00
freq.    2058.65  E(vib)   ...       0.00

------------
INNER ENERGY
------------

The inner energy is: U= E(el) + E(ZPE) + E(vib) + E(rot) + E(trans)
    E(el)   - is the total energy from the electronic structure calculation
              = E(kin-el) + E(nuc-el) + E(el-el) + E(nuc-nuc)
    E(ZPE)  - the the zero temperature vibrational energy from the frequency calculation
    E(vib)  - the the finite temperature correction to E(ZPE) due to population
              of excited vibrational states
    E(rot)  - is the rotational thermal energy
    E(trans)- is the translational thermal energy

Summary of contributions to the inner energy U:
Electronic energy                ...  -1463.39410933 Eh
Zero point energy                ...      0.13866899 Eh      87.02 kcal/mol
Thermal vibrational correction   ...      0.01423696 Eh       8.93 kcal/mol
Thermal rotational correction    ...      0.00141627 Eh       0.89 kcal/mol
Thermal translational correction ...      0.00141627 Eh       0.89 kcal/mol
-----------------------------------------------------------------------
Total thermal energy                  -1463.23837085 Eh

Summary of corrections to the electronic energy:
(perhaps to be used in another calculation)
Total thermal correction                  0.01706950 Eh      10.71 kcal/mol
Non-thermal (ZPE) correction              0.13866899 Eh      87.02 kcal/mol
-----------------------------------------------------------------------
Total correction                          0.15573849 Eh      97.73 kcal/mol

--------
ENTHALPY
--------

The enthalpy is H = U + kB*T
                kB is Boltzmann's constant
Total thermal energy              ...  -1463.23837085 Eh
Thermal Enthalpy correction       ...      0.00094421 Eh       0.59 kcal/mol
-----------------------------------------------------------------------
Total Enthalpy                    ...  -1463.23742664 Eh

Note: Only C1 symmetry has been detected, increase convergence thresholds
      if your molecule has a higher symmetry. Symmetry factor of 1.0 is
      used for the rotational entropy correction.

Note: Rotational entropy computed according to Herzberg
Infrared and Raman Spectra, Chapter V,1, Van Nostrand Reinhold, 1945
Point Group:  C1, Symmetry Number:   1
Rotational constants in cm-1:     0.032499     0.014069     0.012204

Vibrational entropy computed according to the QRRHO of S. Grimme
Chem.Eur.J. 2012 18 9955 using a reference frequency of 100.0 cm-1

-------
ENTROPY
-------

The entropy contributions are T*S = T*(S(el)+S(vib)+S(rot)+S(trans))
     S(el)   - electronic entropy
     S(vib)  - vibrational entropy
     S(rot)  - rotational entropy
     S(trans)- translational entropy
The entropies will be listed as multiplied by the temperature to get
units of energy

Electronic entropy                ...      0.00000000 Eh      0.00 kcal/mol
Vibrational entropy               ...      0.02509698 Eh     15.75 kcal/mol
Rotational entropy                ...      0.01522138 Eh      9.55 kcal/mol
Translational entropy             ...      0.01970399 Eh     12.36 kcal/mol
-----------------------------------------------------------------------
Final entropy term                ...      0.06002235 Eh     37.66 kcal/mol

                             ****ORCA TERMINATED NORMALLY****
TOTAL RUN TIME: 0 days 0 hours 53 minutes 54 seconds 791 msec
