                         Program Version 6.1.0  -  RELEASE   -
|  1> # Geometry optimization for (AlH3)n cluster
|  2>
|  3> %pal nprocs 24  end
|  4>
|  5> %geom MaxIter 500 end
|  6>
|  7> %cpcm
|  8> 	epsilon 1.95778548766667
|  9> end
| 10>
| 11> ! PBE def2-TZVP
| 12> ! RKS	# closed shell for AlH3
| 13> ! D3    #  dispersion correction
| 14> ! Freq 	# Frequency analysis to check the stabiltity of the structures
| 15>
| 16> ! NoPop # population analysis not necessary
| 17>
| 18> ! DEFGRID3
| 19> ! TightSCF
| 20> ! TightOpt
| 21>
| 22> ! SmallPrint
| 23>
| 24>
| 25> * xyzFile 0 1 start.xyz # only maingroup elements H and Al so there should be no net spin
| 26>
| 27>                          ****END OF INPUT****
 Total Charge           Charge          ....    0
 Multiplicity           Mult            ....    1
 Number of Electrons    NEL             ....   16
Dispersion correction           -0.001079638
FINAL SINGLE POINT ENERGY      -244.054709490967
Dispersion correction             ... done (  0.1 sec)
                    ***********************HURRAY********************

CARTESIAN COORDINATES (ANGSTROEM)
---------------------------------
  Al    -1.365067    0.622396   -0.208518
  H     -0.538530    0.414743    1.140642
  H     -1.297634    2.018384   -0.978726
  H     -2.259219   -0.565873   -0.787328

 Multiplicity           Mult            ....    1
 Number of Electrons    NEL             ....   16
 Basis Dimension        Dim             ....   55

ORBITAL ENERGIES
----------------

  NO   OCC          E(Eh)            E(eV)
   0   2.0000     -55.371329     -1506.7305
   1   2.0000      -3.931719      -106.9875
   2   2.0000      -2.541308       -69.1525
   3   2.0000      -2.529787       -68.8390
   4   2.0000      -2.529787       -68.8390
   5   2.0000      -0.373048       -10.1511
   6   2.0000      -0.265578        -7.2267
   7   2.0000      -0.265574        -7.2266
   8   0.0000      -0.083258        -2.2656
   9   0.0000       0.016383         0.4458
  10   0.0000       0.032936         0.8962
  11   0.0000       0.032939         0.8963
  12   0.0000       0.104094         2.8326

-------
TIMINGS
-------

Dispersion correction           -0.001079616
FINAL SINGLE POINT ENERGY      -244.054709565951

DIPOLE MOMENT
-------------

Method             : SCF
Type of density    : Electron Density
Multiplicity       :   1
Irrep              :   0
Energy             :  -244.0536299498407402 Eh
Basis              : AO
                                X                 Y                 Z
Electronic contribution:      0.000446048      -0.000010087      -0.000338401
Nuclear contribution   :     -0.000157744       0.000057630       0.000123415
                        -----------------------------------------
Total Dipole Moment    :      0.000288304       0.000047543      -0.000214986
                        -----------------------------------------
Magnitude (a.u.)       :      0.000362765
Magnitude (Debye)      :      0.000922075

VIBRATIONAL FREQUENCIES
-----------------------

Scaling factor for frequencies =  1.000000000  (already applied!)

     0:       0.00 cm**-1
     1:       0.00 cm**-1
     2:       0.00 cm**-1
     3:       0.00 cm**-1
     4:       0.00 cm**-1
     5:       0.00 cm**-1
     6:     650.93 cm**-1
     7:     744.76 cm**-1
     8:     745.68 cm**-1
     9:    1865.55 cm**-1
    10:    1872.26 cm**-1
    11:    1872.58 cm**-1

IR SPECTRUM
-----------

 Mode   freq       eps      Int      T**2         TX        TY        TZ
       cm**-1   L/(mol*cm) km/mol    a.u.
----------------------------------------------------------------------------
  6:    650.93   0.075259  380.33  0.036080  (-0.148395  0.062996  0.100452)
  7:    744.76   0.053558  270.66  0.022441  ( 0.038513  0.141240 -0.031769)
  8:    745.68   0.053448  270.11  0.022368  (-0.085169 -0.004461 -0.122858)
  9:   1865.55   0.000046    0.23  0.000008  (-0.001666 -0.001448 -0.001691)
 10:   1872.26   0.066651  336.83  0.011109  (-0.031644  0.057419 -0.082529)
 11:   1872.58   0.066467  335.90  0.011077  (-0.057464 -0.081265 -0.034214)

--------------------------
THERMOCHEMISTRY AT 298.15K
--------------------------

Temperature         ...   298.15 K
Pressure            ...     1.00 atm
Total Mass          ...    30.01 AMU
Quasi RRHO          ...     True
Cut-Off Frequency   ...     1.00 cm^-1

Throughout the following assumptions are being made:
  (1) The electronic state is orbitally nondegenerate
  (2) There are no thermally accessible electronically excited states
  (3) Hindered rotations indicated by low frequency modes are not
      treated as such but are treated as vibrations and this may
      cause some error
  (4) All equations used are the standard statistical mechanics
      equations for an ideal gas
  (5) All vibrations are strictly harmonic

freq.     650.93  E(vib)   ...       0.08
freq.     744.76  E(vib)   ...       0.06
freq.     745.68  E(vib)   ...       0.06
freq.    1865.55  E(vib)   ...       0.00
freq.    1872.26  E(vib)   ...       0.00
freq.    1872.58  E(vib)   ...       0.00

------------
INNER ENERGY
------------

The inner energy is: U= E(el) + E(ZPE) + E(vib) + E(rot) + E(trans)
    E(el)   - is the total energy from the electronic structure calculation
              = E(kin-el) + E(nuc-el) + E(el-el) + E(nuc-nuc)
    E(ZPE)  - the the zero temperature vibrational energy from the frequency calculation
    E(vib)  - the the finite temperature correction to E(ZPE) due to population
              of excited vibrational states
    E(rot)  - is the rotational thermal energy
    E(trans)- is the translational thermal energy

Summary of contributions to the inner energy U:
Electronic energy                ...   -244.05470957 Eh
Zero point energy                ...      0.01765982 Eh      11.08 kcal/mol
Thermal vibrational correction   ...      0.00032863 Eh       0.21 kcal/mol
Thermal rotational correction    ...      0.00141627 Eh       0.89 kcal/mol
Thermal translational correction ...      0.00141627 Eh       0.89 kcal/mol
-----------------------------------------------------------------------
Total thermal energy                   -244.03388857 Eh

Summary of corrections to the electronic energy:
(perhaps to be used in another calculation)
Total thermal correction                  0.00316118 Eh       1.98 kcal/mol
Non-thermal (ZPE) correction              0.01765982 Eh      11.08 kcal/mol
-----------------------------------------------------------------------
Total correction                          0.02082099 Eh      13.07 kcal/mol

--------
ENTHALPY
--------

The enthalpy is H = U + kB*T
                kB is Boltzmann's constant
Total thermal energy              ...   -244.03388857 Eh
Thermal Enthalpy correction       ...      0.00094421 Eh       0.59 kcal/mol
-----------------------------------------------------------------------
Total Enthalpy                    ...   -244.03294436 Eh

Note: Rotational entropy computed according to Herzberg
Infrared and Raman Spectra, Chapter V,1, Van Nostrand Reinhold, 1945
Point Group:  C3v, Symmetry Number:   3
Rotational constants in cm-1:     4.378290     4.378137     2.189107

Vibrational entropy computed according to the QRRHO of S. Grimme
Chem.Eur.J. 2012 18 9955 using a reference frequency of 100.0 cm-1

-------
ENTROPY
-------

The entropy contributions are T*S = T*(S(el)+S(vib)+S(rot)+S(trans))
     S(el)   - electronic entropy
     S(vib)  - vibrational entropy
     S(rot)  - rotational entropy
     S(trans)- translational entropy
The entropies will be listed as multiplied by the temperature to get
units of energy

Electronic entropy                ...      0.00000000 Eh      0.00 kcal/mol
Vibrational entropy               ...      0.00042356 Eh      0.27 kcal/mol
Rotational entropy                ...      0.00670943 Eh      4.21 kcal/mol
Translational entropy             ...      0.01716637 Eh     10.77 kcal/mol
-----------------------------------------------------------------------
Final entropy term                ...      0.02429936 Eh     15.25 kcal/mol

In case the symmetry of your molecule has not been determined correctly
or in case you have a reason to use a different symmetry number we print
out the resulting rotational entropy values for sn=1,12:

 non-linear molecules -----------------------------------
|  sn= 1 | S(rot)=       0.00774671 Eh      4.86 kcal/mol|
|  sn= 2 | S(rot)=       0.00709226 Eh      4.45 kcal/mol|
|  sn= 3 | S(rot)=       0.00670943 Eh      4.21 kcal/mol|
|  sn= 4 | S(rot)=       0.00643780 Eh      4.04 kcal/mol|
|  sn= 5 | S(rot)=       0.00622711 Eh      3.91 kcal/mol|
|  sn= 6 | S(rot)=       0.00605497 Eh      3.80 kcal/mol|
|  sn= 7 | S(rot)=       0.00590942 Eh      3.71 kcal/mol|
|  sn= 8 | S(rot)=       0.00578335 Eh      3.63 kcal/mol|
|  sn= 9 | S(rot)=       0.00567214 Eh      3.56 kcal/mol|
|  sn=10 | S(rot)=       0.00557266 Eh      3.50 kcal/mol|
|  sn=11 | S(rot)=       0.00548267 Eh      3.44 kcal/mol|
|  sn=12 | S(rot)=       0.00540051 Eh      3.39 kcal/mol|
 linear molecules ---------------------------------------
|  Dinfh | S(rot)=       0.00458605 Eh      2.88 kcal/mol|
|  Cinfv | S(rot)=       0.00524050 Eh      3.29 kcal/mol|
 --------------------------------------------------------

-------------------
GIBBS FREE ENERGY
-------------------

The Gibbs free energy is G = H - T*S

Total enthalpy                    ...   -244.03294436 Eh
Total entropy correction          ...     -0.02429936 Eh    -15.25 kcal/mol
-----------------------------------------------------------------------
Final Gibbs free energy         ...   -244.05724372 Eh

For completeness - the Gibbs free energy minus the electronic energy
G-E(el)                           ...     -0.00253416 Eh     -1.59 kcal/mol

                             ****ORCA TERMINATED NORMALLY****
TOTAL RUN TIME: 0 days 0 hours 0 minutes 27 seconds 577 msec
