                         Program Version 6.1.0  -  RELEASE   -
|  1> # Geometry optimization for (AlH3)n cluster
|  2>
|  3> %pal nprocs 24  end
|  4>
|  5> %geom MaxIter 500 end
|  6>
|  7>
|  8> ! PBE def2-SV(P)
|  9> ! RKS	# closed shell for AlH3
| 10> ! D3    #  dispersion correction
| 11> ! gCP(DFT/SV(P))
| 12>
| 13> ! NoPop # population analysis not necessary
| 14>
| 15> ! DEFGRID3
| 16> ! TightSCF
| 17> ! NormalOpt
| 18>
| 19> ! SmallPrint
| 20>
| 21>
| 22> * xyzFile 0 1 start.xyz # only maingroup elements H and Al so there should be no net spin
| 23>
| 24>                          ****END OF INPUT****
 Total Charge           Charge          ....    0
 Multiplicity           Mult            ....    1
 Number of Electrons    NEL             ....  428
Dispersion correction           -0.143186616
FINAL SINGLE POINT ENERGY     -3488.535740187907
Dispersion correction             ... done (  0.1 sec)
Dispersion correction           -0.142414053
FINAL SINGLE POINT ENERGY     -3488.536787197204
Dispersion correction             ... done (  0.1 sec)
Dispersion correction           -0.141357513
FINAL SINGLE POINT ENERGY     -3488.538001532576
Dispersion correction             ... done (  0.1 sec)
FINAL SINGLE POINT ENERGY     -3488.539133941046
FINAL SINGLE POINT ENERGY     -3488.540061209039
FINAL SINGLE POINT ENERGY     -3488.540939359739
FINAL SINGLE POINT ENERGY     -3488.541371747419
FINAL SINGLE POINT ENERGY     -3488.541648101291
FINAL SINGLE POINT ENERGY     -3488.542092432222
FINAL SINGLE POINT ENERGY     -3488.542311746261
FINAL SINGLE POINT ENERGY     -3488.547097404497
FINAL SINGLE POINT ENERGY     -3488.547102627879
FINAL SINGLE POINT ENERGY     -3488.547107001122
FINAL SINGLE POINT ENERGY     -3488.547111087220
FINAL SINGLE POINT ENERGY     -3488.547114985645
FINAL SINGLE POINT ENERGY     -3488.547118712599
FINAL SINGLE POINT ENERGY     -3488.547122177559
Dispersion correction             ... done (  0.1 sec)
Dispersion correction           -0.142545680
FINAL SINGLE POINT ENERGY     -3488.547124982286
Dispersion correction             ... done (  0.1 sec)
Dispersion correction           -0.142549323
FINAL SINGLE POINT ENERGY     -3488.547127288554
Dispersion correction             ... done (  0.1 sec)
                    ***********************HURRAY********************

CARTESIAN COORDINATES (ANGSTROEM)
---------------------------------
  Zr    -0.018930    2.036100    1.299282
  Zr    -0.077855   -2.420870   -1.162116
  Zr     1.483286   -1.394664    1.765749
  Zr    -1.527422    1.002801   -1.639471
  Zr     1.906676    0.445007   -1.455730
  Zr    -1.940629   -0.808854    1.653455
  O     -1.656440    0.852758    0.442069
  O      1.669016   -1.227071   -0.276123
  O     -0.435809   -1.995458    0.832166
  O      0.389152    1.696989   -0.730385
  O     -0.082454   -0.468085   -1.876293
  O      0.054156    0.099076    2.072318
  O     -1.413232    2.469497    2.976488
  O     -1.228724    3.775276    0.597171
  O      1.519021    2.103574    2.970674
  O      1.641942    3.536027    0.798141
  O     -1.746469   -3.834573   -0.561336
  O     -1.663146   -2.398476   -2.725771
  O      1.093903   -4.173322   -0.442207
  O      1.289235   -2.881869   -2.833699
  O      0.648332   -2.285552    3.631723
  O      2.501633    0.057322    3.099098
  O      1.924375   -3.574749    1.581529
  O      3.776835   -1.476436    1.388301
  O     -3.658715    0.472508   -1.220153
  O     -2.200155    3.101242   -1.338435
  O     -2.315511   -0.301825   -3.323886
  O     -0.721358    2.049471   -3.419073
  O      1.498053    1.588776   -3.337684
  O      2.918306    1.868208   -0.039187
  O      2.566798   -1.023939   -3.041967
  O      4.215896   -0.450160   -0.584060
  O     -4.014107   -0.263552    0.904463
  O     -2.616985    0.570881    3.270029
  O     -2.979451   -2.654697    0.944671
  O     -1.593399   -1.964735    3.527343
  C     -2.281173    1.756796    3.568106
  C     -1.958846    3.949582   -0.424236
  C      2.230241    1.223130    3.534968
  C      2.693727    3.094903    0.266774
  C     -2.658166   -3.710317    0.306264
  C     -2.174813   -1.541778   -3.521485
  C      1.710539   -4.400638    0.642643
  C      2.205179   -2.189574   -3.380235
  C     -0.534109   -2.395053    4.078229
  C      4.540198   -1.146312    0.454461
  C     -4.376577    0.261297   -0.187265
  C      0.469190    2.122802   -3.851517
  H     -2.558264   -1.945207   -4.503506
  H      2.111764   -5.444763    0.786446
  H      2.695552    1.504154    4.524187
  H     -2.446377    4.960684   -0.531799
  H      2.751724   -2.659318   -4.246648
  H      0.628238    2.724980   -4.791648
  H      3.519001    3.832101    0.045562
  H      5.618633   -1.474813    0.515608
  H     -3.270027   -4.632101    0.530635
  H     -5.462029    0.561927   -0.266361
  H     -2.807128    2.227307    4.447482
  H     -0.656602   -2.928694    5.064068
  Al     6.129217   -0.939966   -4.218320
  Al     5.207450    0.378398   -2.054110
  H      5.654087    0.667900   -3.899537
  H      3.781437    1.161756   -2.409238
  H      5.691885   -1.283335   -2.550206
  H      7.739457   -1.056672   -4.304889
  H      5.091063   -1.732635   -5.176309
  H      6.448880    1.152992   -1.368856

 Multiplicity           Mult            ....    1
 Number of Electrons    NEL             ....  428
 Basis Dimension        Dim             ....  804

ORBITAL ENERGIES
----------------

  NO   OCC          E(Eh)            E(eV)
   0   2.0000     -55.392852     -1507.3161
   1   2.0000     -55.354063     -1506.2606
   2   2.0000     -18.808912      -511.8165
   3   2.0000     -18.796656      -511.4830
   4   2.0000     -18.796080      -511.4673
   5   2.0000     -18.796018      -511.4657
   6   2.0000     -18.794945      -511.4365
   7   2.0000     -18.794502      -511.4244
   8   2.0000     -18.794127      -511.4142
   9   2.0000     -18.793831      -511.4061
  10   2.0000     -18.793092      -511.3860
  11   2.0000     -18.793048      -511.3848
  12   2.0000     -18.793027      -511.3843
  13   2.0000     -18.792961      -511.3825
  14   2.0000     -18.792825      -511.3788
  15   2.0000     -18.792420      -511.3677
  16   2.0000     -18.792336      -511.3655
  17   2.0000     -18.792027      -511.3571
  18   2.0000     -18.791407      -511.3402
  19   2.0000     -18.790412      -511.3131
  20   2.0000     -18.789437      -511.2866
  21   2.0000     -18.789290      -511.2826
  22   2.0000     -18.789054      -511.2762
  23   2.0000     -18.788979      -511.2741
  24   2.0000     -18.788554      -511.2625
  25   2.0000     -18.788366      -511.2574
  26   2.0000     -18.764306      -510.6027
  27   2.0000     -18.762956      -510.5660
  28   2.0000     -18.762793      -510.5616
  29   2.0000     -18.762724      -510.5597
  30   2.0000     -18.760293      -510.4935
  31   2.0000     -18.760193      -510.4908
  32   2.0000     -10.052554      -273.5439
  33   2.0000     -10.046534      -273.3801
  34   2.0000     -10.045058      -273.3399
  35   2.0000     -10.043362      -273.2938
  36   2.0000     -10.043164      -273.2884
  37   2.0000     -10.043105      -273.2868
  38   2.0000     -10.042951      -273.2826
  39   2.0000     -10.041491      -273.2429
  40   2.0000     -10.041471      -273.2423
  41   2.0000     -10.039419      -273.1865
  42   2.0000     -10.038990      -273.1748
  43   2.0000     -10.038762      -273.1686
  44   2.0000      -3.940819      -107.2351
  45   2.0000      -3.912353      -106.4606
  46   2.0000      -2.548633       -69.3518
  47   2.0000      -2.546865       -69.3037
  48   2.0000      -2.543938       -69.2241
  49   2.0000      -2.521310       -68.6083
  50   2.0000      -2.517589       -68.5071
  51   2.0000      -2.514178       -68.4142
  52   2.0000      -2.057044       -55.9750
  53   2.0000      -2.056741       -55.9668
  54   2.0000      -2.055886       -55.9435
  55   2.0000      -2.055687       -55.9381
  56   2.0000      -2.055276       -55.9269
  57   2.0000      -2.053736       -55.8850
  58   2.0000      -1.239196       -33.7202
  59   2.0000      -1.236303       -33.6415
  60   2.0000      -1.235027       -33.6068
  61   2.0000      -1.234127       -33.5823
  62   2.0000      -1.233127       -33.5551
  63   2.0000      -1.232595       -33.5406
  64   2.0000      -1.230251       -33.4768
  65   2.0000      -1.229187       -33.4479
  66   2.0000      -1.228971       -33.4420
  67   2.0000      -1.228172       -33.4203
  68   2.0000      -1.227789       -33.4099
  69   2.0000      -1.226798       -33.3829
  70   2.0000      -1.225421       -33.3454
  71   2.0000      -1.224961       -33.3329
  72   2.0000      -1.223938       -33.3050
  73   2.0000      -1.223369       -33.2896
  74   2.0000      -1.223162       -33.2839
  75   2.0000      -1.222245       -33.2590
  76   2.0000      -1.009062       -27.4580
  77   2.0000      -1.003953       -27.3190
  78   2.0000      -1.002978       -27.2924
  79   2.0000      -1.001427       -27.2502
  80   2.0000      -1.000781       -27.2326
  81   2.0000      -0.999989       -27.2111
  82   2.0000      -0.999740       -27.2043
  83   2.0000      -0.998494       -27.1704
  84   2.0000      -0.997362       -27.1396
  85   2.0000      -0.995609       -27.0919
  86   2.0000      -0.993612       -27.0376
  87   2.0000      -0.993245       -27.0276
  88   2.0000      -0.932063       -25.3627
  89   2.0000      -0.922701       -25.1080
  90   2.0000      -0.921593       -25.0778
  91   2.0000      -0.920169       -25.0391
  92   2.0000      -0.919584       -25.0232
  93   2.0000      -0.919261       -25.0144
  94   2.0000      -0.918478       -24.9930
  95   2.0000      -0.917355       -24.9625
  96   2.0000      -0.916754       -24.9462
  97   2.0000      -0.915851       -24.9216
  98   2.0000      -0.915194       -24.9037
  99   2.0000      -0.912543       -24.8316
 100   2.0000      -0.833111       -22.6701
 101   2.0000      -0.824730       -22.4420
 102   2.0000      -0.823471       -22.4078
 103   2.0000      -0.815227       -22.1834
 104   2.0000      -0.812890       -22.1199
 105   2.0000      -0.810977       -22.0678
 106   2.0000      -0.573277       -15.5997
 107   2.0000      -0.564202       -15.3527
 108   2.0000      -0.561933       -15.2910
 109   2.0000      -0.561174       -15.2703
 110   2.0000      -0.559694       -15.2301
 111   2.0000      -0.558116       -15.1871
 112   2.0000      -0.557677       -15.1752
 113   2.0000      -0.556220       -15.1355
 114   2.0000      -0.554674       -15.0935
 115   2.0000      -0.552699       -15.0397
 116   2.0000      -0.550571       -14.9818
 117   2.0000      -0.550466       -14.9789
 118   2.0000      -0.509229       -13.8568
 119   2.0000      -0.478280       -13.0147
 120   2.0000      -0.476306       -12.9610
 121   2.0000      -0.475445       -12.9375
 122   2.0000      -0.474266       -12.9054
 123   2.0000      -0.472957       -12.8698
 124   2.0000      -0.471568       -12.8320
 125   2.0000      -0.470759       -12.8100
 126   2.0000      -0.469264       -12.7693
 127   2.0000      -0.468898       -12.7594
 128   2.0000      -0.467560       -12.7229
 129   2.0000      -0.465911       -12.6781
 130   2.0000      -0.463704       -12.6180
 131   2.0000      -0.463318       -12.6075
 132   2.0000      -0.461220       -12.5504
 133   2.0000      -0.461031       -12.5453
 134   2.0000      -0.460199       -12.5226
 135   2.0000      -0.459830       -12.5126
 136   2.0000      -0.457540       -12.4503
 137   2.0000      -0.450721       -12.2647
 138   2.0000      -0.448469       -12.2035
 139   2.0000      -0.447749       -12.1839
 140   2.0000      -0.446789       -12.1578
 141   2.0000      -0.446094       -12.1388
 142   2.0000      -0.431492       -11.7415
 143   2.0000      -0.426107       -11.5949
 144   2.0000      -0.425678       -11.5833
 145   2.0000      -0.423566       -11.5258
 146   2.0000      -0.421376       -11.4662
 147   2.0000      -0.415123       -11.2961
 148   2.0000      -0.413266       -11.2455
 149   2.0000      -0.412048       -11.2124
 150   2.0000      -0.410661       -11.1747
 151   2.0000      -0.408859       -11.1256
 152   2.0000      -0.405603       -11.0370
 153   2.0000      -0.404594       -11.0096
 154   2.0000      -0.404192       -10.9986
 155   2.0000      -0.375597       -10.2205
 156   2.0000      -0.373352       -10.1594
 157   2.0000      -0.370252       -10.0751
 158   2.0000      -0.369506       -10.0548
 159   2.0000      -0.363382        -9.8881
 160   2.0000      -0.361923        -9.8484
 161   2.0000      -0.360830        -9.8187
 162   2.0000      -0.341360        -9.2889
 163   2.0000      -0.338549        -9.2124
 164   2.0000      -0.335996        -9.1429
 165   2.0000      -0.335626        -9.1329
 166   2.0000      -0.333125        -9.0648
 167   2.0000      -0.330329        -8.9887
 168   2.0000      -0.325675        -8.8621
 169   2.0000      -0.323281        -8.7969
 170   2.0000      -0.322526        -8.7764
 171   2.0000      -0.315528        -8.5860
 172   2.0000      -0.315194        -8.5769
 173   2.0000      -0.313694        -8.5360
 174   2.0000      -0.310050        -8.4369
 175   2.0000      -0.305818        -8.3217
 176   2.0000      -0.305032        -8.3004
 177   2.0000      -0.304425        -8.2838
 178   2.0000      -0.301945        -8.2163
 179   2.0000      -0.300972        -8.1899
 180   2.0000      -0.300248        -8.1702
 181   2.0000      -0.296441        -8.0666
 182   2.0000      -0.294757        -8.0207
 183   2.0000      -0.292345        -7.9551
 184   2.0000      -0.291977        -7.9451
 185   2.0000      -0.289708        -7.8834
 186   2.0000      -0.289479        -7.8771
 187   2.0000      -0.288213        -7.8427
 188   2.0000      -0.287930        -7.8350
 189   2.0000      -0.286878        -7.8064
 190   2.0000      -0.286531        -7.7969
 191   2.0000      -0.285731        -7.7751
 192   2.0000      -0.284046        -7.7293
 193   2.0000      -0.283702        -7.7199
 194   2.0000      -0.280611        -7.6358
 195   2.0000      -0.280113        -7.6223
 196   2.0000      -0.278863        -7.5883
 197   2.0000      -0.277348        -7.5470
 198   2.0000      -0.276845        -7.5333
 199   2.0000      -0.276108        -7.5133
 200   2.0000      -0.275857        -7.5064
 201   2.0000      -0.275339        -7.4923
 202   2.0000      -0.273692        -7.4475
 203   2.0000      -0.272599        -7.4178
 204   2.0000      -0.271791        -7.3958
 205   2.0000      -0.270711        -7.3664
 206   2.0000      -0.265398        -7.2219
 207   2.0000      -0.264878        -7.2077
 208   2.0000      -0.255846        -6.9619
 209   2.0000      -0.252014        -6.8576
 210   2.0000      -0.247566        -6.7366
 211   2.0000      -0.243472        -6.6252
 212   2.0000      -0.241699        -6.5770
 213   2.0000      -0.238705        -6.4955
 214   0.0000      -0.124104        -3.3770
 215   0.0000      -0.118036        -3.2119
 216   0.0000      -0.097579        -2.6553
 217   0.0000      -0.095567        -2.6005
 218   0.0000      -0.092460        -2.5160

-------
TIMINGS
-------

Dispersion correction           -0.142551113
FINAL SINGLE POINT ENERGY     -3488.547128943858

DIPOLE MOMENT
-------------

Method             : SCF
Type of density    : Electron Density
Multiplicity       :   1
Irrep              :   0
Energy             : -3488.7660474160729791 Eh
Basis              : AO
                                X                 Y                 Z
Electronic contribution:   -126.496617852       9.641743617      63.681221283
Nuclear contribution   :    125.183214070      -9.739419493     -62.572898590
                        -----------------------------------------
Total Dipole Moment    :     -1.313403782      -0.097675877       1.108322693
                        -----------------------------------------
Magnitude (a.u.)       :      1.721321952
Magnitude (Debye)      :      4.375252696

Rotational constants in cm-1:             0.001829             0.001460             0.001421
Rotational constants in MHz :            54.832309            43.779940            42.606098

                             ****ORCA TERMINATED NORMALLY****
TOTAL RUN TIME: 0 days 2 hours 25 minutes 1 seconds 515 msec
