                         Program Version 6.1.0  -  RELEASE   -
|  1> # Geometry optimization for (AlH3)n cluster
|  2>
|  3> %pal nprocs 24  end
|  4>
|  5> %geom MaxIter 500 end
|  6>
|  7>
|  8> ! PBE def2-SV(P)
|  9> ! RKS	# closed shell for AlH3
| 10> ! D3    #  dispersion correction
| 11> ! gCP(DFT/SV(P))
| 12>
| 13> ! NoPop # population analysis not necessary
| 14>
| 15> ! DEFGRID3
| 16> ! TightSCF
| 17> ! NormalOpt
| 18>
| 19> ! SmallPrint
| 20>
| 21>
| 22> * xyzFile 0 1 start.xyz # only maingroup elements H and Al so there should be no net spin
| 23>
| 24>                          ****END OF INPUT****
 Total Charge           Charge          ....    0
 Multiplicity           Mult            ....    1
 Number of Electrons    NEL             ....  476
Dispersion correction           -0.161727275
FINAL SINGLE POINT ENERGY     -4220.510757147706
Dispersion correction             ... done (  0.1 sec)
Dispersion correction           -0.162270964
FINAL SINGLE POINT ENERGY     -4220.504323951114
Dispersion correction             ... done (  0.1 sec)
Dispersion correction           -0.161386790
FINAL SINGLE POINT ENERGY     -4220.510721836334
Dispersion correction             ... done (  0.1 sec)
FINAL SINGLE POINT ENERGY     -4220.509672960196
FINAL SINGLE POINT ENERGY     -4220.511286140057
FINAL SINGLE POINT ENERGY     -4220.511443224894
FINAL SINGLE POINT ENERGY     -4220.511744508807
FINAL SINGLE POINT ENERGY     -4220.511885941242
FINAL SINGLE POINT ENERGY     -4220.512079240675
FINAL SINGLE POINT ENERGY     -4220.512189412385
FINAL SINGLE POINT ENERGY     -4220.512852244973
FINAL SINGLE POINT ENERGY     -4220.512856437475
FINAL SINGLE POINT ENERGY     -4220.512859769056
FINAL SINGLE POINT ENERGY     -4220.512862596906
FINAL SINGLE POINT ENERGY     -4220.512865379844
FINAL SINGLE POINT ENERGY     -4220.512867937361
FINAL SINGLE POINT ENERGY     -4220.512870087577
Dispersion correction             ... done (  0.1 sec)
Dispersion correction           -0.163238780
FINAL SINGLE POINT ENERGY     -4220.512872102023
Dispersion correction             ... done (  0.1 sec)
Dispersion correction           -0.163235385
FINAL SINGLE POINT ENERGY     -4220.512873779394
Dispersion correction             ... done (  0.1 sec)
                    ***********************HURRAY********************

CARTESIAN COORDINATES (ANGSTROEM)
---------------------------------
  Zr    -0.103417    2.169789    1.305754
  Zr     0.198582   -2.101712   -1.448795
  Zr     1.845449   -1.003292    1.387330
  Zr    -1.825239    1.047106   -1.493571
  Zr     1.635509    1.038229   -1.791002
  Zr    -1.607563   -0.951251    1.668992
  O     -1.678357    0.817878    0.558950
  O      1.781754   -0.729465   -0.679635
  O     -0.047145   -1.819396    0.602154
  O      0.120671    1.953010   -0.719138
  O     -0.213523   -0.150052   -2.032520
  O      0.265308    0.233220    1.984499
  O     -1.338338    2.244694    3.148078
  O     -1.704921    3.758998    0.842491
  O      1.945393    2.232202    2.149918
  O      1.348109    4.106411    0.315685
  O     -1.405696   -3.536459   -0.850569
  O     -1.302287   -2.302582   -3.142827
  O      1.595663   -3.742560   -0.902051
  O      1.568624   -2.245660   -3.206482
  O      1.366108   -2.223817    3.185242
  O      2.727517    0.307654    3.044699
  O      2.695376   -3.011127    0.939185
  O      3.920489   -0.304727    0.814713
  O     -3.943161    0.662654   -0.804720
  O     -2.520324    3.127194   -1.179580
  O     -2.712100   -0.560997   -2.752591
  O     -1.394696    2.076960   -3.414578
  O      0.860794    2.029916   -3.638431
  O      2.312785    3.223704   -1.545095
  O      2.473243   -0.181155   -3.446834
  O      3.701553    1.076860   -0.975939
  O     -3.702849   -0.817103    0.908055
  O     -2.375451    0.246476    3.370712
  O     -2.337717   -3.033596    1.164511
  O     -0.880427   -2.065140    3.448847
  C     -2.112682    1.428943    3.744185
  C     -2.405961    3.931148   -0.210442
  C      2.565388    1.554970    3.048985
  C      2.053522    4.168088   -0.763668
  C     -2.052598   -3.815505    0.212118
  C     -2.274602   -1.550293   -3.432037
  C      2.447232   -3.862069    0.032158
  C      2.324762   -1.400486   -3.772075
  C      0.278836   -2.442885    3.801443
  C      4.370616    0.360076   -0.162938
  C     -4.373841   -0.027872    0.165418
  C     -0.310847    2.301280   -4.038067
  H     -2.831670   -1.783630   -4.385434
  H      3.041020   -4.819878    0.057896
  H      3.005681    2.141815    3.904573
  H     -2.986722    4.894127   -0.275401
  H      2.926505   -1.765332   -4.652871
  H     -0.401729    2.792664   -5.048738
  H      2.484793    5.180140   -1.018328
  H      5.487385    0.334767   -0.322284
  H     -2.427632   -4.876413    0.301036
  H     -5.477021    0.050113    0.388697
  H     -2.606678    1.798968    4.685641
  H      0.348933   -3.035635    4.757625
  Al    -3.197247    5.086225    2.822824
  Al    -4.028219    5.223680    5.790942
  H     -3.200210    6.490720    6.631216
  H     -5.572755    5.301959    6.249106
  H     -3.876252    5.946005    4.235497
  H     -3.280743    6.264317    1.722895
  H     -1.673732    5.067088    3.574168
  H     -3.096015    3.897336    5.845424
  Al    -1.500159    6.548317    7.077268
  H     -0.853902    6.045585    5.587877
  H     -1.228250    8.132548    7.250064
  H     -4.026427    3.698684    2.842251
  Al    -0.109487    5.041168    4.267073
  H      0.284650    4.236876    2.551088
  H      0.467641    3.813243    5.132823
  H     -1.264014    5.412852    8.202501
  Al     1.242810    5.476062    1.771715
  H      2.791296    5.551663    2.240038
  H      0.756761    6.304684    3.647698
  H      0.350660    6.634116    1.075116

 Multiplicity           Mult            ....    1
 Number of Electrons    NEL             ....  476
 Basis Dimension        Dim             ....  876

ORBITAL ENERGIES
----------------

  NO   OCC          E(Eh)            E(eV)
   0   2.0000     -55.397371     -1507.4391
   1   2.0000     -55.390664     -1507.2566
   2   2.0000     -55.377979     -1506.9114
   3   2.0000     -55.375752     -1506.8508
   4   2.0000     -55.370968     -1506.7207
   5   2.0000     -18.812110      -511.9035
   6   2.0000     -18.807426      -511.7761
   7   2.0000     -18.802971      -511.6549
   8   2.0000     -18.802702      -511.6475
   9   2.0000     -18.802429      -511.6401
  10   2.0000     -18.801758      -511.6218
  11   2.0000     -18.801258      -511.6082
  12   2.0000     -18.801041      -511.6023
  13   2.0000     -18.800801      -511.5958
  14   2.0000     -18.800789      -511.5955
  15   2.0000     -18.800623      -511.5910
  16   2.0000     -18.800102      -511.5768
  17   2.0000     -18.799944      -511.5725
  18   2.0000     -18.799816      -511.5690
  19   2.0000     -18.799070      -511.5487
  20   2.0000     -18.799021      -511.5474
  21   2.0000     -18.797922      -511.5175
  22   2.0000     -18.797793      -511.5140
  23   2.0000     -18.796805      -511.4871
  24   2.0000     -18.796635      -511.4824
  25   2.0000     -18.795280      -511.4456
  26   2.0000     -18.794925      -511.4359
  27   2.0000     -18.794510      -511.4246
  28   2.0000     -18.794165      -511.4152
  29   2.0000     -18.772639      -510.8295
  30   2.0000     -18.770808      -510.7797
  31   2.0000     -18.770064      -510.7594
  32   2.0000     -18.769150      -510.7345
  33   2.0000     -18.767917      -510.7010
  34   2.0000     -18.767183      -510.6810
  35   2.0000     -10.055695      -273.6294
  36   2.0000     -10.052693      -273.5477
  37   2.0000     -10.051589      -273.5176
  38   2.0000     -10.051442      -273.5136
  39   2.0000     -10.050595      -273.4906
  40   2.0000     -10.049057      -273.4487
  41   2.0000     -10.048958      -273.4461
  42   2.0000     -10.048315      -273.4285
  43   2.0000     -10.048055      -273.4215
  44   2.0000     -10.046468      -273.3783
  45   2.0000     -10.045199      -273.3438
  46   2.0000     -10.044164      -273.3156
  47   2.0000      -3.946442      -107.3882
  48   2.0000      -3.942244      -107.2739
  49   2.0000      -3.933757      -107.0430
  50   2.0000      -3.926409      -106.8430
  51   2.0000      -3.925801      -106.8265
  52   2.0000      -2.554434       -69.5097
  53   2.0000      -2.553353       -69.4803
  54   2.0000      -2.551325       -69.4251
  55   2.0000      -2.548601       -69.3510
  56   2.0000      -2.548364       -69.3445
  57   2.0000      -2.543458       -69.2110
  58   2.0000      -2.542138       -69.1751
  59   2.0000      -2.539901       -69.1142
  60   2.0000      -2.535414       -68.9921
  61   2.0000      -2.535164       -68.9853
  62   2.0000      -2.535024       -68.9815
  63   2.0000      -2.532576       -68.9149
  64   2.0000      -2.532225       -68.9054
  65   2.0000      -2.527686       -68.7818
  66   2.0000      -2.526963       -68.7622
  67   2.0000      -2.066984       -56.2455
  68   2.0000      -2.063847       -56.1601
  69   2.0000      -2.063004       -56.1372
  70   2.0000      -2.062346       -56.1193
  71   2.0000      -2.061922       -56.1078
  72   2.0000      -2.061125       -56.0861
  73   2.0000      -1.247346       -33.9420
  74   2.0000      -1.243920       -33.8488
  75   2.0000      -1.243299       -33.8319
  76   2.0000      -1.241991       -33.7963
  77   2.0000      -1.240599       -33.7584
  78   2.0000      -1.239820       -33.7372
  79   2.0000      -1.237987       -33.6873
  80   2.0000      -1.237271       -33.6679
  81   2.0000      -1.236063       -33.6350
  82   2.0000      -1.235834       -33.6287
  83   2.0000      -1.235162       -33.6105
  84   2.0000      -1.234131       -33.5824
  85   2.0000      -1.233347       -33.5611
  86   2.0000      -1.232075       -33.5265
  87   2.0000      -1.231324       -33.5060
  88   2.0000      -1.230619       -33.4868
  89   2.0000      -1.229907       -33.4675
  90   2.0000      -1.229685       -33.4614
  91   2.0000      -1.012402       -27.5489
  92   2.0000      -1.010601       -27.4998
  93   2.0000      -1.010076       -27.4856
  94   2.0000      -1.008468       -27.4418
  95   2.0000      -1.007742       -27.4221
  96   2.0000      -1.007506       -27.4156
  97   2.0000      -1.007070       -27.4038
  98   2.0000      -1.005113       -27.3505
  99   2.0000      -1.003735       -27.3130
 100   2.0000      -1.002616       -27.2826
 101   2.0000      -0.999994       -27.2112
 102   2.0000      -0.998855       -27.1802
 103   2.0000      -0.935557       -25.4578
 104   2.0000      -0.930523       -25.3208
 105   2.0000      -0.929080       -25.2815
 106   2.0000      -0.927729       -25.2448
 107   2.0000      -0.926311       -25.2062
 108   2.0000      -0.926084       -25.2000
 109   2.0000      -0.925759       -25.1912
 110   2.0000      -0.923623       -25.1331
 111   2.0000      -0.923137       -25.1198
 112   2.0000      -0.922686       -25.1076
 113   2.0000      -0.921135       -25.0654
 114   2.0000      -0.918503       -24.9937
 115   2.0000      -0.840918       -22.8826
 116   2.0000      -0.831920       -22.6377
 117   2.0000      -0.831372       -22.6228
 118   2.0000      -0.823253       -22.4018
 119   2.0000      -0.820353       -22.3230
 120   2.0000      -0.818082       -22.2611
 121   2.0000      -0.575123       -15.6499
 122   2.0000      -0.570360       -15.5203
 123   2.0000      -0.569297       -15.4913
 124   2.0000      -0.568044       -15.4573
 125   2.0000      -0.565814       -15.3966
 126   2.0000      -0.565009       -15.3747
 127   2.0000      -0.564292       -15.3552
 128   2.0000      -0.562872       -15.3165
 129   2.0000      -0.560796       -15.2600
 130   2.0000      -0.559243       -15.2178
 131   2.0000      -0.557257       -15.1637
 132   2.0000      -0.556125       -15.1329
 133   2.0000      -0.508051       -13.8248
 134   2.0000      -0.486878       -13.2486
 135   2.0000      -0.484510       -13.1842
 136   2.0000      -0.483085       -13.1454
 137   2.0000      -0.481845       -13.1117
 138   2.0000      -0.480893       -13.0858
 139   2.0000      -0.479282       -13.0419
 140   2.0000      -0.477899       -13.0043
 141   2.0000      -0.476934       -12.9780
 142   2.0000      -0.475723       -12.9451
 143   2.0000      -0.474469       -12.9110
 144   2.0000      -0.472443       -12.8558
 145   2.0000      -0.470433       -12.8011
 146   2.0000      -0.470131       -12.7929
 147   2.0000      -0.468712       -12.7543
 148   2.0000      -0.468071       -12.7368
 149   2.0000      -0.467186       -12.7128
 150   2.0000      -0.466881       -12.7045
 151   2.0000      -0.466142       -12.6844
 152   2.0000      -0.457221       -12.4416
 153   2.0000      -0.456757       -12.4290
 154   2.0000      -0.455163       -12.3856
 155   2.0000      -0.454696       -12.3729
 156   2.0000      -0.453678       -12.3452
 157   2.0000      -0.452559       -12.3148
 158   2.0000      -0.437027       -11.8921
 159   2.0000      -0.432466       -11.7680
 160   2.0000      -0.430656       -11.7187
 161   2.0000      -0.429456       -11.6861
 162   2.0000      -0.423751       -11.5309
 163   2.0000      -0.421115       -11.4591
 164   2.0000      -0.419547       -11.4165
 165   2.0000      -0.418791       -11.3959
 166   2.0000      -0.417205       -11.3527
 167   2.0000      -0.415386       -11.3032
 168   2.0000      -0.412712       -11.2305
 169   2.0000      -0.411297       -11.1920
 170   2.0000      -0.410392       -11.1673
 171   2.0000      -0.401340       -10.9210
 172   2.0000      -0.383735       -10.4419
 173   2.0000      -0.380714       -10.3598
 174   2.0000      -0.377271       -10.2661
 175   2.0000      -0.376654       -10.2493
 176   2.0000      -0.370905       -10.0928
 177   2.0000      -0.369292       -10.0489
 178   2.0000      -0.369014       -10.0414
 179   2.0000      -0.367977       -10.0132
 180   2.0000      -0.346540        -9.4298
 181   2.0000      -0.345489        -9.4012
 182   2.0000      -0.343167        -9.3380
 183   2.0000      -0.341125        -9.2825
 184   2.0000      -0.339917        -9.2496
 185   2.0000      -0.333529        -9.0758
 186   2.0000      -0.333008        -9.0616
 187   2.0000      -0.331821        -9.0293
 188   2.0000      -0.324791        -8.8380
 189   2.0000      -0.322873        -8.7858
 190   2.0000      -0.322254        -8.7690
 191   2.0000      -0.321703        -8.7540
 192   2.0000      -0.318956        -8.6792
 193   2.0000      -0.316037        -8.5998
 194   2.0000      -0.313225        -8.5233
 195   2.0000      -0.312087        -8.4923
 196   2.0000      -0.310219        -8.4415
 197   2.0000      -0.309418        -8.4197
 198   2.0000      -0.307854        -8.3771
 199   2.0000      -0.306788        -8.3481
 200   2.0000      -0.303209        -8.2507
 201   2.0000      -0.302600        -8.2342
 202   2.0000      -0.301156        -8.1949
 203   2.0000      -0.298560        -8.1242
 204   2.0000      -0.296553        -8.0696
 205   2.0000      -0.296391        -8.0652
 206   2.0000      -0.295613        -8.0440
 207   2.0000      -0.295078        -8.0295
 208   2.0000      -0.294855        -8.0234
 209   2.0000      -0.293528        -7.9873
 210   2.0000      -0.293114        -7.9760
 211   2.0000      -0.291855        -7.9418
 212   2.0000      -0.290015        -7.8917
 213   2.0000      -0.288827        -7.8594
 214   2.0000      -0.286815        -7.8046
 215   2.0000      -0.286442        -7.7945
 216   2.0000      -0.284859        -7.7514
 217   2.0000      -0.284371        -7.7381
 218   2.0000      -0.283247        -7.7075
 219   2.0000      -0.282757        -7.6942
 220   2.0000      -0.281998        -7.6735
 221   2.0000      -0.281421        -7.6578
 222   2.0000      -0.280025        -7.6199
 223   2.0000      -0.279261        -7.5991
 224   2.0000      -0.278104        -7.5676
 225   2.0000      -0.277972        -7.5640
 226   2.0000      -0.276845        -7.5333
 227   2.0000      -0.272545        -7.4163
 228   2.0000      -0.271355        -7.3839
 229   2.0000      -0.268502        -7.3063
 230   2.0000      -0.262173        -7.1341
 231   2.0000      -0.257035        -6.9943
 232   2.0000      -0.253134        -6.8881
 233   2.0000      -0.250209        -6.8085
 234   2.0000      -0.249738        -6.7957
 235   2.0000      -0.248560        -6.7636
 236   2.0000      -0.245288        -6.6746
 237   2.0000      -0.243073        -6.6144
 238   0.0000      -0.130819        -3.5598
 239   0.0000      -0.126499        -3.4422
 240   0.0000      -0.104989        -2.8569
 241   0.0000      -0.103425        -2.8143
 242   0.0000      -0.101381        -2.7587

-------
TIMINGS
-------

Dispersion correction           -0.163231143
FINAL SINGLE POINT ENERGY     -4220.512875148273

DIPOLE MOMENT
-------------

Method             : SCF
Type of density    : Electron Density
Multiplicity       :   1
Irrep              :   0
Energy             : -4220.7537578590181511 Eh
Basis              : AO
                                X                 Y                 Z
Electronic contribution:     75.717513163    -278.183686240    -217.184208164
Nuclear contribution   :    -75.035707587     275.862579639     215.002436037
                        -----------------------------------------
Total Dipole Moment    :      0.681805576      -2.321106602      -2.181772127
                        -----------------------------------------
Magnitude (a.u.)       :      3.257686958
Magnitude (Debye)      :      8.280382194

Rotational constants in cm-1:             0.001700             0.001012             0.000989
Rotational constants in MHz :            50.976384            30.325354            29.662368

                             ****ORCA TERMINATED NORMALLY****
TOTAL RUN TIME: 0 days 2 hours 24 minutes 48 seconds 249 msec
