                         Program Version 6.1.0  -  RELEASE   -
|  1> # Geometry optimization for (AlH3)n cluster
|  2>
|  3> %pal nprocs 24  end
|  4>
|  5> %geom MaxIter 500 end
|  6>
|  7> %cpcm
|  8> 	epsilon 1.95778548766667
|  9> end
| 10>
| 11> ! PBE def2-TZVP
| 12> ! RKS	# closed shell for AlH3
| 13> ! D3    #  dispersion correction
| 14> ! Freq 	# Frequency analysis to check the stabiltity of the structures
| 15>
| 16> ! NoPop # population analysis not necessary
| 17>
| 18> ! DEFGRID3
| 19> ! TightSCF
| 20> ! TightOpt
| 21>
| 22> ! SmallPrint
| 23>
| 24>
| 25> * xyzFile 0 1 start.xyz # only maingroup elements H and Al so there should be no net spin
| 26>
| 27>                          ****END OF INPUT****
 Total Charge           Charge          ....    0
 Multiplicity           Mult            ....    1
 Number of Electrons    NEL             ....   96
Dispersion correction           -0.025168609
FINAL SINGLE POINT ENERGY     -1464.542739443153
Dispersion correction             ... done (  0.1 sec)
Dispersion correction           -0.025168383
FINAL SINGLE POINT ENERGY     -1464.542762103079
Dispersion correction             ... done (  0.1 sec)
Dispersion correction           -0.025162566
FINAL SINGLE POINT ENERGY     -1464.542833551399
Dispersion correction             ... done (  0.1 sec)
FINAL SINGLE POINT ENERGY     -1464.542840133391
FINAL SINGLE POINT ENERGY     -1464.542859602399
FINAL SINGLE POINT ENERGY     -1464.542862299888
FINAL SINGLE POINT ENERGY     -1464.542865798363
FINAL SINGLE POINT ENERGY     -1464.542867730458
FINAL SINGLE POINT ENERGY     -1464.542868951962
FINAL SINGLE POINT ENERGY     -1464.542869640015
FINAL SINGLE POINT ENERGY     -1464.542870322043
Dispersion correction             ... done (  0.1 sec)
Dispersion correction           -0.025092033
FINAL SINGLE POINT ENERGY     -1464.542870793518
Dispersion correction             ... done (  0.1 sec)
Dispersion correction           -0.025091723
FINAL SINGLE POINT ENERGY     -1464.542871035488
Dispersion correction             ... done (  0.1 sec)
                    ***********************HURRAY********************

CARTESIAN COORDINATES (ANGSTROEM)
---------------------------------
  Al    -0.109308    1.130176    3.121004
  Al     0.325959   -0.295619    0.440872
  H      1.477662   -1.490018    0.852170
  H     -1.133510   -0.857862    0.735566
  H      0.803889    0.723680    1.726413
  H     -1.476318    1.795255    2.645338
  H     -0.506673   -0.429990    3.643606
  H      0.846469    0.388765   -0.893677
  Al     1.173720   -3.075875    1.427895
  H      0.182637   -2.702873    2.751503
  H      0.236079   -3.820106    0.376719
  H      0.952936    1.775611    4.114815
  Al     0.609302   -1.688335    4.105301
  H     -0.939219   -2.422556    4.637617
  H      2.011951   -1.079829    3.635185
  H      2.587795   -3.588174    1.948609
  Al    -1.786572   -2.682215    6.061493
  H     -2.556658   -4.071466    5.979932
  H     -2.338560   -1.308248    6.640328
  Al     1.138591   -2.479874    6.547758
  H      2.266213   -2.551079    7.648506
  H      0.671895   -1.026844    5.863610
  H      1.337699   -3.163964    5.039580
  H     -0.359617   -3.083179    7.016689

 Multiplicity           Mult            ....    1
 Number of Electrons    NEL             ....   96
 Basis Dimension        Dim             ....  330

ORBITAL ENERGIES
----------------

  NO   OCC          E(Eh)            E(eV)
   0   2.0000     -55.400504     -1507.5244
   1   2.0000     -55.395527     -1507.3889
   2   2.0000     -55.377346     -1506.8942
   3   2.0000     -55.372970     -1506.7751
   4   2.0000     -55.369128     -1506.6706
   5   2.0000     -55.368757     -1506.6605
   6   2.0000      -3.956052      -107.6497
   7   2.0000      -3.955966      -107.6473
   8   2.0000      -3.937523      -107.1454
   9   2.0000      -3.933392      -107.0330
  10   2.0000      -3.929366      -106.9235
  11   2.0000      -3.929010      -106.9138
  12   2.0000      -2.559835       -69.6567
  13   2.0000      -2.559565       -69.6493
  14   2.0000      -2.559501       -69.6475
  15   2.0000      -2.559192       -69.6392
  16   2.0000      -2.554865       -69.5214
  17   2.0000      -2.554229       -69.5041
  18   2.0000      -2.543136       -69.2022
  19   2.0000      -2.539809       -69.1117
  20   2.0000      -2.538373       -69.0726
  21   2.0000      -2.536117       -69.0113
  22   2.0000      -2.535053       -68.9823
  23   2.0000      -2.534260       -68.9607
  24   2.0000      -2.533916       -68.9514
  25   2.0000      -2.532060       -68.9008
  26   2.0000      -2.531698       -68.8910
  27   2.0000      -2.531039       -68.8731
  28   2.0000      -2.527151       -68.7673
  29   2.0000      -2.526787       -68.7574
  30   2.0000      -0.505645       -13.7593
  31   2.0000      -0.461917       -12.5694
  32   2.0000      -0.418335       -11.3835
  33   2.0000      -0.410155       -11.1609
  34   2.0000      -0.394671       -10.7396
  35   2.0000      -0.352558        -9.5936
  36   2.0000      -0.338644        -9.2150
  37   2.0000      -0.319775        -8.7015
  38   2.0000      -0.309611        -8.4249
  39   2.0000      -0.304225        -8.2784
  40   2.0000      -0.302908        -8.2426
  41   2.0000      -0.293927        -7.9982
  42   2.0000      -0.282760        -7.6943
  43   2.0000      -0.278261        -7.5719
  44   2.0000      -0.273439        -7.4406
  45   2.0000      -0.267411        -7.2766
  46   2.0000      -0.260605        -7.0914
  47   2.0000      -0.248725        -6.7682
  48   0.0000      -0.080503        -2.1906
  49   0.0000      -0.056422        -1.5353
  50   0.0000      -0.052280        -1.4226
  51   0.0000      -0.048372        -1.3163
  52   0.0000      -0.036879        -1.0035

-------
TIMINGS
-------

Dispersion correction           -0.025090669
FINAL SINGLE POINT ENERGY     -1464.542871159588

DIPOLE MOMENT
-------------

Method             : SCF
Type of density    : Electron Density
Multiplicity       :   1
Irrep              :   0
Energy             : -1464.5177804908776125 Eh
Basis              : AO
                                X                 Y                 Z
Electronic contribution:      0.137453132      -0.851037662       1.793925530
Nuclear contribution   :      0.008386299       0.316694931      -0.655910741
                        -----------------------------------------
Total Dipole Moment    :      0.145839431      -0.534342731       1.138014789
                        -----------------------------------------
Magnitude (a.u.)       :      1.265649618
Magnitude (Debye)      :      3.217025667

VIBRATIONAL FREQUENCIES
-----------------------

Scaling factor for frequencies =  1.000000000  (already applied!)

     0:       0.00 cm**-1
     1:       0.00 cm**-1
     2:       0.00 cm**-1
     3:       0.00 cm**-1
     4:       0.00 cm**-1
     5:       0.00 cm**-1
     6:      38.20 cm**-1
     7:      43.63 cm**-1
     8:      49.06 cm**-1
     9:      76.38 cm**-1
    10:      99.55 cm**-1
    11:     126.61 cm**-1
    12:     135.69 cm**-1
    13:     148.28 cm**-1
    14:     166.74 cm**-1
    15:     190.13 cm**-1
    16:     223.10 cm**-1
    17:     232.69 cm**-1
    18:     282.26 cm**-1
    19:     294.55 cm**-1
    20:     323.82 cm**-1
    21:     343.18 cm**-1
    22:     358.17 cm**-1
    23:     370.85 cm**-1
    24:     388.76 cm**-1
    25:     394.54 cm**-1
    26:     405.43 cm**-1
    27:     433.52 cm**-1
    28:     449.79 cm**-1
    29:     475.20 cm**-1
    30:     485.74 cm**-1
    31:     514.21 cm**-1
    32:     540.21 cm**-1
    33:     557.77 cm**-1
    34:     626.23 cm**-1
    35:     633.90 cm**-1
    36:     650.73 cm**-1
    37:     658.84 cm**-1
    38:     672.63 cm**-1
    39:     683.32 cm**-1
    40:     698.44 cm**-1
    41:     698.84 cm**-1
    42:     707.50 cm**-1
    43:     745.17 cm**-1
    44:     778.77 cm**-1
    45:     807.37 cm**-1
    46:     929.73 cm**-1
    47:     989.09 cm**-1
    48:    1050.27 cm**-1
    49:    1074.75 cm**-1
    50:    1089.39 cm**-1
    51:    1096.81 cm**-1
    52:    1136.72 cm**-1
    53:    1149.82 cm**-1
    54:    1574.90 cm**-1
    55:    1631.94 cm**-1
    56:    1653.69 cm**-1
    57:    1688.58 cm**-1
    58:    1709.86 cm**-1
    59:    1744.10 cm**-1
    60:    1786.95 cm**-1
    61:    1822.03 cm**-1
    62:    1866.76 cm**-1
    63:    1878.12 cm**-1
    64:    1881.55 cm**-1
    65:    1882.43 cm**-1
    66:    1884.81 cm**-1
    67:    1888.35 cm**-1
    68:    1889.96 cm**-1
    69:    1894.70 cm**-1
    70:    1902.83 cm**-1
    71:    1941.01 cm**-1

IR SPECTRUM
-----------

 Mode   freq       eps      Int      T**2         TX        TY        TZ
       cm**-1   L/(mol*cm) km/mol    a.u.
----------------------------------------------------------------------------
  6:     38.20   0.000077    0.39  0.000633  (-0.001837 -0.025089 -0.000161)
  7:     43.63   0.000026    0.13  0.000184  ( 0.007851 -0.010140  0.004429)
  8:     49.06   0.000078    0.39  0.000493  ( 0.001969  0.013457  0.017556)
  9:     76.38   0.000045    0.23  0.000186  ( 0.006339 -0.003245  0.011623)
 10:     99.55   0.000161    0.82  0.000506  (-0.022460  0.000117  0.001243)
 11:    126.61   0.000140    0.71  0.000344  ( 0.001799 -0.018123  0.003528)
 12:    135.69   0.001403    7.09  0.003226  ( 0.014911 -0.052093 -0.017040)
 13:    148.28   0.000037    0.19  0.000077  ( 0.002112 -0.008263  0.002158)
 14:    166.74   0.000385    1.95  0.000721  (-0.014830 -0.001434 -0.022349)
 15:    190.13   0.001152    5.82  0.001890  (-0.008533  0.018235 -0.038535)
 16:    223.10   0.002202   11.13  0.003081  (-0.003170  0.008737  0.054719)
 17:    232.69   0.002387   12.06  0.003201  ( 0.000716 -0.001954  0.056540)
 18:    282.26   0.001577    7.97  0.001743  (-0.011910 -0.040009 -0.000883)
 19:    294.55   0.001824    9.22  0.001932  ( 0.006370 -0.029151  0.032278)
 20:    323.82   0.001017    5.14  0.000980  (-0.007775  0.006169 -0.029697)
 21:    343.18   0.001086    5.49  0.000987  (-0.026329 -0.014612  0.008968)
 22:    358.17   0.000738    3.73  0.000643  (-0.002121 -0.024723 -0.005201)
 23:    370.85   0.013849   69.98  0.011653  (-0.075522 -0.047058  0.061116)
 24:    388.76   0.000696    3.52  0.000559  (-0.009330 -0.013310  0.017166)
 25:    394.54   0.000246    1.24  0.000195  (-0.004912  0.012426  0.004015)
 26:    405.43   0.000225    1.14  0.000173  (-0.003981  0.010150  0.007369)
 27:    433.52   0.006945   35.10  0.004999  (-0.003298 -0.016763  0.068612)
 28:    449.79   0.001776    8.97  0.001232  ( 0.008469 -0.033743 -0.004646)
 29:    475.20   0.039238  198.29  0.025768  (-0.082041 -0.069334  0.119288)
 30:    485.74   0.002400   12.13  0.001542  ( 0.022462  0.020969 -0.024452)
 31:    514.21   0.017902   90.47  0.010864  (-0.043884 -0.026095  0.090870)
 32:    540.21   0.041961  212.05  0.024240  (-0.028288  0.153026  0.004778)
 33:    557.77   0.038530  194.72  0.021557  ( 0.057168 -0.017049 -0.134157)
 34:    626.23   0.238994  1207.78  0.119095  (-0.089367  0.255250  0.214374)
 35:    633.90   0.000127    0.64  0.000062  (-0.003330 -0.003856  0.006034)
 36:    650.73   0.224591  1134.99  0.107705  ( 0.019779  0.138903 -0.296681)
 37:    658.84   0.127855  646.13  0.060559  (-0.027571  0.236098 -0.063691)
 38:    672.63   0.105445  532.88  0.048921  (-0.216204  0.042952  0.018202)
 39:    683.32   0.077189  390.08  0.035251  ( 0.125263 -0.024873  0.137628)
 40:    698.44   0.029527  149.22  0.013193  (-0.010789 -0.031788  0.109844)
 41:    698.84   0.019132   96.69  0.008543  ( 0.023614  0.058307 -0.067720)
 42:    707.50   0.003094   15.64  0.001365  ( 0.005449 -0.035132 -0.010042)
 43:    745.17   0.010233   51.71  0.004285  (-0.061211 -0.008147 -0.021726)
 44:    778.77   0.039395  199.08  0.015786  ( 0.087326 -0.071429  0.055299)
 45:    807.37   0.047754  241.33  0.018458  ( 0.090370  0.078610  0.064121)
 46:    929.73   0.055352  279.73  0.018579  (-0.025512 -0.022247 -0.132034)
 47:    989.09   0.023499  118.75  0.007414  (-0.041788  0.074389  0.011579)
 48:   1050.27   0.000338    1.71  0.000100  (-0.009870 -0.001695 -0.000148)
 49:   1074.75   0.038900  196.58  0.011295  ( 0.096766  0.039067 -0.020121)
 50:   1089.39   0.010705   54.10  0.003067  (-0.043674  0.033020  0.008296)
 51:   1096.81   0.060875  307.64  0.017320  ( 0.120842  0.043677  0.028457)
 52:   1136.72   0.016804   84.92  0.004613  (-0.032877  0.039175 -0.044695)
 53:   1149.82   0.125039  631.90  0.033936  ( 0.009333 -0.071524  0.169508)
 54:   1574.90   0.028729  145.19  0.005693  (-0.017298  0.072349  0.012611)
 55:   1631.94   0.138028  697.54  0.026394  ( 0.040120  0.036022 -0.153254)
 56:   1653.69   0.303085  1531.67  0.057194  (-0.074911 -0.064862  0.217659)
 57:   1688.58   0.027915  141.07  0.005159  (-0.011938  0.057980 -0.040679)
 58:   1709.86   0.144634  730.92  0.026397  (-0.161131 -0.020317 -0.004581)
 59:   1744.10   0.398716  2014.95  0.071340  (-0.068184  0.242185  0.089654)
 60:   1786.95   0.123598  624.61  0.021585  (-0.022498  0.055475 -0.134168)
 61:   1822.03   0.081045  409.57  0.013881  ( 0.106377  0.033803 -0.037710)
 62:   1866.76   0.040125  202.77  0.006708  (-0.065278  0.013238 -0.047656)
 63:   1878.12   0.004873   24.63  0.000810  ( 0.005315 -0.023901 -0.014497)
 64:   1881.55   0.034560  174.65  0.005732  ( 0.043780 -0.012326  0.060525)
 65:   1882.43   0.000803    4.06  0.000133  (-0.009636  0.003809 -0.005069)
 66:   1884.81   0.000974    4.92  0.000161  ( 0.004150  0.000070 -0.012000)
 67:   1888.35   0.005119   25.87  0.000846  ( 0.028089  0.007535 -0.000514)
 68:   1889.96   0.068971  348.55  0.011388  ( 0.102306  0.023354  0.019401)
 69:   1894.70   0.052965  267.66  0.008723  ( 0.002369  0.090850  0.021546)
 70:   1902.83   0.025299  127.85  0.004149  ( 0.034984  0.029028 -0.045635)
 71:   1941.01   0.022907  115.76  0.003683  ( 0.037497 -0.005206  0.047432)

--------------------------
THERMOCHEMISTRY AT 298.15K
--------------------------

Temperature         ...   298.15 K
Pressure            ...     1.00 atm
Total Mass          ...   180.04 AMU
Quasi RRHO          ...     True
Cut-Off Frequency   ...     1.00 cm^-1

Throughout the following assumptions are being made:
  (1) The electronic state is orbitally nondegenerate
  (2) There are no thermally accessible electronically excited states
  (3) Hindered rotations indicated by low frequency modes are not
      treated as such but are treated as vibrations and this may
      cause some error
  (4) All equations used are the standard statistical mechanics
      equations for an ideal gas
  (5) All vibrations are strictly harmonic

freq.      38.20  E(vib)   ...       0.54
freq.      43.63  E(vib)   ...       0.53
freq.      49.06  E(vib)   ...       0.53
freq.      76.38  E(vib)   ...       0.49
freq.      99.55  E(vib)   ...       0.46
freq.     126.61  E(vib)   ...       0.43
freq.     135.69  E(vib)   ...       0.42
freq.     148.28  E(vib)   ...       0.41
freq.     166.74  E(vib)   ...       0.39
freq.     190.13  E(vib)   ...       0.36
freq.     223.10  E(vib)   ...       0.33
freq.     232.69  E(vib)   ...       0.32
freq.     282.26  E(vib)   ...       0.28
freq.     294.55  E(vib)   ...       0.27
freq.     323.82  E(vib)   ...       0.25
freq.     343.18  E(vib)   ...       0.23
freq.     358.17  E(vib)   ...       0.22
freq.     370.85  E(vib)   ...       0.21
freq.     388.76  E(vib)   ...       0.20
freq.     394.54  E(vib)   ...       0.20
freq.     405.43  E(vib)   ...       0.19
freq.     433.52  E(vib)   ...       0.17
freq.     449.79  E(vib)   ...       0.17
freq.     475.20  E(vib)   ...       0.15
freq.     485.74  E(vib)   ...       0.15
freq.     514.21  E(vib)   ...       0.13
freq.     540.21  E(vib)   ...       0.12
freq.     557.77  E(vib)   ...       0.12
freq.     626.23  E(vib)   ...       0.09
freq.     633.90  E(vib)   ...       0.09
freq.     650.73  E(vib)   ...       0.08
freq.     658.84  E(vib)   ...       0.08
freq.     672.63  E(vib)   ...       0.08
freq.     683.32  E(vib)   ...       0.08
freq.     698.44  E(vib)   ...       0.07
freq.     698.84  E(vib)   ...       0.07
freq.     707.50  E(vib)   ...       0.07
freq.     745.17  E(vib)   ...       0.06
freq.     778.77  E(vib)   ...       0.05
freq.     807.37  E(vib)   ...       0.05
freq.     929.73  E(vib)   ...       0.03
freq.     989.09  E(vib)   ...       0.02
freq.    1050.27  E(vib)   ...       0.02
freq.    1074.75  E(vib)   ...       0.02
freq.    1089.39  E(vib)   ...       0.02
freq.    1096.81  E(vib)   ...       0.02
freq.    1136.72  E(vib)   ...       0.01
freq.    1149.82  E(vib)   ...       0.01
freq.    1574.90  E(vib)   ...       0.00
freq.    1631.94  E(vib)   ...       0.00
freq.    1653.69  E(vib)   ...       0.00
freq.    1688.58  E(vib)   ...       0.00
freq.    1709.86  E(vib)   ...       0.00
freq.    1744.10  E(vib)   ...       0.00
freq.    1786.95  E(vib)   ...       0.00
freq.    1822.03  E(vib)   ...       0.00
freq.    1866.76  E(vib)   ...       0.00
freq.    1878.12  E(vib)   ...       0.00
freq.    1881.55  E(vib)   ...       0.00
freq.    1882.43  E(vib)   ...       0.00
freq.    1884.81  E(vib)   ...       0.00
freq.    1888.35  E(vib)   ...       0.00
freq.    1889.96  E(vib)   ...       0.00
freq.    1894.70  E(vib)   ...       0.00
freq.    1902.83  E(vib)   ...       0.00
freq.    1941.01  E(vib)   ...       0.00

------------
INNER ENERGY
------------

The inner energy is: U= E(el) + E(ZPE) + E(vib) + E(rot) + E(trans)
    E(el)   - is the total energy from the electronic structure calculation
              = E(kin-el) + E(nuc-el) + E(el-el) + E(nuc-nuc)
    E(ZPE)  - the the zero temperature vibrational energy from the frequency calculation
    E(vib)  - the the finite temperature correction to E(ZPE) due to population
              of excited vibrational states
    E(rot)  - is the rotational thermal energy
    E(trans)- is the translational thermal energy

Summary of contributions to the inner energy U:
Electronic energy                ...  -1464.54287116 Eh
Zero point energy                ...      0.13110614 Eh      82.27 kcal/mol
Thermal vibrational correction   ...      0.01481893 Eh       9.30 kcal/mol
Thermal rotational correction    ...      0.00141627 Eh       0.89 kcal/mol
Thermal translational correction ...      0.00141627 Eh       0.89 kcal/mol
-----------------------------------------------------------------------
Total thermal energy                  -1464.39411355 Eh

Summary of corrections to the electronic energy:
(perhaps to be used in another calculation)
Total thermal correction                  0.01765147 Eh      11.08 kcal/mol
Non-thermal (ZPE) correction              0.13110614 Eh      82.27 kcal/mol
-----------------------------------------------------------------------
Total correction                          0.14875761 Eh      93.35 kcal/mol

--------
ENTHALPY
--------

The enthalpy is H = U + kB*T
                kB is Boltzmann's constant
Total thermal energy              ...  -1464.39411355 Eh
Thermal Enthalpy correction       ...      0.00094421 Eh       0.59 kcal/mol
-----------------------------------------------------------------------
Total Enthalpy                    ...  -1464.39316934 Eh

Note: Only C1 symmetry has been detected, increase convergence thresholds
      if your molecule has a higher symmetry. Symmetry factor of 1.0 is
      used for the rotational entropy correction.

Note: Rotational entropy computed according to Herzberg
Infrared and Raman Spectra, Chapter V,1, Van Nostrand Reinhold, 1945
Point Group:  C1, Symmetry Number:   1
Rotational constants in cm-1:     0.032703     0.014343     0.012292

Vibrational entropy computed according to the QRRHO of S. Grimme
Chem.Eur.J. 2012 18 9955 using a reference frequency of 100.0 cm-1

-------
ENTROPY
-------

The entropy contributions are T*S = T*(S(el)+S(vib)+S(rot)+S(trans))
     S(el)   - electronic entropy
     S(vib)  - vibrational entropy
     S(rot)  - rotational entropy
     S(trans)- translational entropy
The entropies will be listed as multiplied by the temperature to get
units of energy

Electronic entropy                ...      0.00000000 Eh      0.00 kcal/mol
Vibrational entropy               ...      0.02584514 Eh     16.22 kcal/mol
Rotational entropy                ...      0.01520592 Eh      9.54 kcal/mol
Translational entropy             ...      0.01970399 Eh     12.36 kcal/mol
-----------------------------------------------------------------------
Final entropy term                ...      0.06075505 Eh     38.12 kcal/mol

                             ****ORCA TERMINATED NORMALLY****
TOTAL RUN TIME: 0 days 0 hours 11 minutes 1 seconds 707 msec
