                         Program Version 6.1.0  -  RELEASE   -
|  1> # Geometry optimization for (AlH3)n cluster
|  2>
|  3> %pal nprocs 24  end
|  4>
|  5> %geom MaxIter 500 end
|  6>
|  7> %cpcm
|  8> 	epsilon 1.95778548766667
|  9> end
| 10>
| 11> %elprop Polar 1 end # invoke raman
| 12>
| 13> ! PBEh-3c
| 14> ! RKS	# closed shell for AlH3
| 15> ! Freq 	# Frequency analysis to check the stabiltity of the structures
| 16>
| 17>
| 18> ! NoPop # population analysis not necessary
| 19>
| 20> ! DEFGRID3
| 21> ! ExtremeSCF
| 22> ! VeryTightOpt
| 23>
| 24>
| 25> ! SmallPrint
| 26>
| 27>
| 28> * xyzFile 0 1 start.xyz # only maingroup elements H and Al so there should be no net spin
| 29>
| 30>                          ****END OF INPUT****
 Total Charge           Charge          ....    0
 Multiplicity           Mult            ....    1
 Number of Electrons    NEL             ....   64
Dispersion correction           -0.006893355
FINAL SINGLE POINT ENERGY      -975.591517869616
Dispersion correction             ... done (  0.2 sec)
Dispersion correction           -0.006913694
FINAL SINGLE POINT ENERGY      -975.592055782788
Dispersion correction             ... done (  0.1 sec)
Dispersion correction           -0.006963294
FINAL SINGLE POINT ENERGY      -975.592679060508
Dispersion correction             ... done (  0.1 sec)
FINAL SINGLE POINT ENERGY      -975.592737532319
FINAL SINGLE POINT ENERGY      -975.592961381136
FINAL SINGLE POINT ENERGY      -975.593003380112
FINAL SINGLE POINT ENERGY      -975.593083266574
FINAL SINGLE POINT ENERGY      -975.593125512977
FINAL SINGLE POINT ENERGY      -975.593147453926
FINAL SINGLE POINT ENERGY      -975.593163690478
FINAL SINGLE POINT ENERGY      -975.593290213877
FINAL SINGLE POINT ENERGY      -975.593290327415
FINAL SINGLE POINT ENERGY      -975.593290431004
FINAL SINGLE POINT ENERGY      -975.593290504046
FINAL SINGLE POINT ENERGY      -975.593290546356
FINAL SINGLE POINT ENERGY      -975.593290571806
FINAL SINGLE POINT ENERGY      -975.593290587845
Dispersion correction             ... done (  0.1 sec)
Dispersion correction           -0.006849437
FINAL SINGLE POINT ENERGY      -975.593290595867
Dispersion correction             ... done (  0.1 sec)
Dispersion correction           -0.006849489
FINAL SINGLE POINT ENERGY      -975.593290599914
Dispersion correction             ... done (  0.1 sec)
                    ***********************HURRAY********************

CARTESIAN COORDINATES (ANGSTROEM)
---------------------------------
  Al     0.674826    1.186135    2.550345
  Al    -0.263421   -0.467608    0.085719
  H      0.504026   -1.934264    0.410783
  H     -1.658836   -0.505130    0.817388
  H      0.778636    0.471614    1.019429
  H     -0.488092    2.245324    2.520217
  H      0.077211   -0.182587    3.315828
  H      0.043335   -0.130111   -1.418438
  Al     1.161272   -2.797394    1.701972
  H     -0.161939   -2.587256    2.724474
  H      1.170160   -4.307940    1.267921
  H      2.161683    1.398042    3.014243
  Al    -0.455906   -1.588895    4.060213
  H     -2.021192   -1.507399    4.180766
  H      0.582934   -1.951459    5.184545
  H      2.348563   -1.935870    2.278825

 Multiplicity           Mult            ....    1
 Number of Electrons    NEL             ....   64
 Basis Dimension        Dim             ....   96

ORBITAL ENERGIES
----------------

  NO   OCC          E(Eh)            E(eV)
   0   2.0000     -56.620373     -1540.7187
   1   2.0000     -56.620264     -1540.7157
   2   2.0000     -56.620209     -1540.7142
   3   2.0000     -56.620137     -1540.7123
   4   2.0000      -4.360879      -118.6655
   5   2.0000      -4.360832      -118.6643
   6   2.0000      -4.359960      -118.6406
   7   2.0000      -4.359864      -118.6379
   8   2.0000      -2.851770       -77.6006
   9   2.0000      -2.851704       -77.5988
  10   2.0000      -2.850957       -77.5785
  11   2.0000      -2.850841       -77.5753
  12   2.0000      -2.850077       -77.5545
  13   2.0000      -2.850021       -77.5530
  14   2.0000      -2.849197       -77.5306
  15   2.0000      -2.849092       -77.5277
  16   2.0000      -2.845777       -77.4375
  17   2.0000      -2.845733       -77.4363
  18   2.0000      -2.844776       -77.4103
  19   2.0000      -2.844693       -77.4080
  20   2.0000      -0.593462       -16.1489
  21   2.0000      -0.527914       -14.3653
  22   2.0000      -0.521155       -14.1813
  23   2.0000      -0.444140       -12.0857
  24   2.0000      -0.418726       -11.3941
  25   2.0000      -0.388047       -10.5593
  26   2.0000      -0.383225       -10.4281
  27   2.0000      -0.378415       -10.2972
  28   2.0000      -0.370606       -10.0847
  29   2.0000      -0.360542        -9.8108
  30   2.0000      -0.355370        -9.6701
  31   2.0000      -0.352833        -9.6011
  32   0.0000      -0.007161        -0.1949
  33   0.0000      -0.000496        -0.0135
  34   0.0000       0.004287         0.1167
  35   0.0000       0.009346         0.2543
  36   0.0000       0.026692         0.7263

-------
TIMINGS
-------

Dispersion correction           -0.006849540
FINAL SINGLE POINT ENERGY      -975.593290603126

DIPOLE MOMENT
-------------

Method             : SCF
Type of density    : Electron Density
Multiplicity       :   1
Irrep              :   0
Energy             :  -975.6129108874245048 Eh
Basis              : AO
                                X                 Y                 Z
Electronic contribution:      0.038236023      -0.215492110      -0.341868316
Nuclear contribution   :     -0.012083285       0.066642598       0.105958745
                        -----------------------------------------
Total Dipole Moment    :      0.026152737      -0.148849512      -0.235909571
                        -----------------------------------------
Magnitude (a.u.)       :      0.280166858
Magnitude (Debye)      :      0.712127560

VIBRATIONAL FREQUENCIES
-----------------------

Scaling factor for frequencies =  1.000000000  (already applied!)

     0:       0.00 cm**-1
     1:       0.00 cm**-1
     2:       0.00 cm**-1
     3:       0.00 cm**-1
     4:       0.00 cm**-1
     5:       0.00 cm**-1
     6:      45.60 cm**-1
     7:      51.37 cm**-1
     8:     118.25 cm**-1
     9:     129.26 cm**-1
    10:     130.95 cm**-1
    11:     147.59 cm**-1
    12:     239.55 cm**-1
    13:     269.97 cm**-1
    14:     299.65 cm**-1
    15:     373.71 cm**-1
    16:     377.95 cm**-1
    17:     399.24 cm**-1
    18:     407.43 cm**-1
    19:     434.68 cm**-1
    20:     483.06 cm**-1
    21:     506.72 cm**-1
    22:     547.72 cm**-1
    23:     608.00 cm**-1
    24:     681.00 cm**-1
    25:     691.92 cm**-1
    26:     694.89 cm**-1
    27:     733.25 cm**-1
    28:     747.94 cm**-1
    29:     749.62 cm**-1
    30:     768.33 cm**-1
    31:     782.01 cm**-1
    32:     799.95 cm**-1
    33:     977.06 cm**-1
    34:    1053.12 cm**-1
    35:    1064.84 cm**-1
    36:    1863.54 cm**-1
    37:    1907.32 cm**-1
    38:    1942.44 cm**-1
    39:    1985.86 cm**-1
    40:    1998.47 cm**-1
    41:    2006.21 cm**-1
    42:    2010.29 cm**-1
    43:    2016.36 cm**-1
    44:    2018.20 cm**-1
    45:    2019.50 cm**-1
    46:    2030.69 cm**-1
    47:    2110.65 cm**-1

IR SPECTRUM
-----------

 Mode   freq       eps      Int      T**2         TX        TY        TZ
       cm**-1   L/(mol*cm) km/mol    a.u.
----------------------------------------------------------------------------
  6:     45.60   0.000271    1.37  0.001857  (-0.034646 -0.021068  0.014586)
  7:     51.37   0.000088    0.44  0.000533  ( 0.015532  0.016577  0.004152)
  8:    118.25   0.000095    0.48  0.000251  (-0.000399 -0.004555 -0.015154)
  9:    129.26   0.000214    1.08  0.000517  (-0.003688  0.010416 -0.019866)
 10:    130.95   0.000509    2.57  0.001212  ( 0.005126 -0.023982 -0.024711)
 11:    147.59   0.000266    1.35  0.000563  ( 0.002769  0.019091 -0.013808)
 12:    239.55   0.000310    1.57  0.000404  (-0.016122  0.007566 -0.009305)
 13:    269.97   0.000097    0.49  0.000112  ( 0.004114 -0.006233 -0.007503)
 14:    299.65   0.002458   12.42  0.002560  (-0.006752  0.025307  0.043290)
 15:    373.71   0.004113   20.79  0.003435  (-0.038621 -0.032597  0.029678)
 16:    377.95   0.003382   17.09  0.002793  ( 0.005226  0.036808  0.037555)
 17:    399.24   0.000994    5.02  0.000777  ( 0.019725  0.018270 -0.007370)
 18:    407.43   0.000255    1.29  0.000195  (-0.003244  0.004525  0.012807)
 19:    434.68   0.000019    0.10  0.000014  ( 0.001542 -0.001610 -0.002994)
 20:    483.06   0.001416    7.16  0.000915  (-0.003382  0.016065  0.025403)
 21:    506.72   0.001122    5.67  0.000691  ( 0.003373 -0.022381  0.013371)
 22:    547.72   0.026640  134.63  0.015178  (-0.006434 -0.106641  0.061354)
 23:    608.00   0.093217  471.08  0.047845  ( 0.024633 -0.109119 -0.187965)
 24:    681.00   0.219676  1110.15  0.100664  (-0.102855 -0.262619  0.145316)
 25:    691.92   0.162700  822.22  0.073379  ( 0.011196 -0.122299 -0.241447)
 26:    694.89   0.182181  920.67  0.081814  ( 0.212753 -0.165985  0.094865)
 27:    733.25   0.000488    2.47  0.000208  (-0.006622  0.008813  0.009291)
 28:    747.94   0.050750  256.47  0.021175  (-0.075986 -0.108930  0.059455)
 29:    749.62   0.034146  172.56  0.014215  ( 0.011297 -0.065156 -0.099207)
 30:    768.33   0.042892  216.76  0.017421  (-0.036826  0.105028 -0.070949)
 31:    782.01   0.041583  210.14  0.016594  ( 0.115983 -0.047888  0.029127)
 32:    799.95   0.047861  241.87  0.018671  (-0.004046  0.064206  0.120548)
 33:    977.06   0.038154  192.82  0.012186  (-0.011094  0.057927  0.093314)
 34:   1053.12   0.059642  301.40  0.017673  ( 0.119319  0.041917 -0.040975)
 35:   1064.84   0.026149  132.15  0.007663  (-0.054592 -0.057824 -0.036598)
 36:   1863.54   0.034622  174.96  0.005798  ( 0.040088  0.049093 -0.042196)
 37:   1907.32   0.336648  1701.28  0.055080  (-0.029014  0.124992  0.196508)
 38:   1942.44   0.203714  1029.49  0.032728  ( 0.122811 -0.101088  0.086176)
 39:   1985.86   0.096614  488.25  0.015182  ( 0.022206  0.104759 -0.060947)
 40:   1998.47   0.054204  273.93  0.008464  (-0.010786  0.050105  0.076402)
 41:   2006.21   0.076472  386.46  0.011895  ( 0.009545  0.093582 -0.055194)
 42:   2010.29   0.003499   17.68  0.000543  ( 0.014255  0.000739 -0.018422)
 43:   2016.36   0.022927  115.86  0.003548  (-0.009376 -0.029473 -0.050909)
 44:   2018.20   0.106185  536.61  0.016419  ( 0.127398 -0.006865  0.011897)
 45:   2019.50   0.002724   13.77  0.000421  (-0.015865 -0.003909 -0.012410)
 46:   2030.69   0.026064  131.72  0.004005  ( 0.049733 -0.028636  0.026684)
 47:   2110.65   0.218633  1104.88  0.032325  ( 0.065310  0.147816 -0.078805)

--------------------------
THERMOCHEMISTRY AT 298.15K
--------------------------

Temperature         ...   298.15 K
Pressure            ...     1.00 atm
Total Mass          ...   120.02 AMU
Quasi RRHO          ...     True
Cut-Off Frequency   ...     1.00 cm^-1

Throughout the following assumptions are being made:
  (1) The electronic state is orbitally nondegenerate
  (2) There are no thermally accessible electronically excited states
  (3) Hindered rotations indicated by low frequency modes are not
      treated as such but are treated as vibrations and this may
      cause some error
  (4) All equations used are the standard statistical mechanics
      equations for an ideal gas
  (5) All vibrations are strictly harmonic

freq.      45.60  E(vib)   ...       0.53
freq.      51.37  E(vib)   ...       0.52
freq.     118.25  E(vib)   ...       0.44
freq.     129.26  E(vib)   ...       0.43
freq.     130.95  E(vib)   ...       0.42
freq.     147.59  E(vib)   ...       0.41
freq.     239.55  E(vib)   ...       0.31
freq.     269.97  E(vib)   ...       0.29
freq.     299.65  E(vib)   ...       0.26
freq.     373.71  E(vib)   ...       0.21
freq.     377.95  E(vib)   ...       0.21
freq.     399.24  E(vib)   ...       0.19
freq.     407.43  E(vib)   ...       0.19
freq.     434.68  E(vib)   ...       0.17
freq.     483.06  E(vib)   ...       0.15
freq.     506.72  E(vib)   ...       0.14
freq.     547.72  E(vib)   ...       0.12
freq.     608.00  E(vib)   ...       0.10
freq.     681.00  E(vib)   ...       0.08
freq.     691.92  E(vib)   ...       0.07
freq.     694.89  E(vib)   ...       0.07
freq.     733.25  E(vib)   ...       0.06
freq.     747.94  E(vib)   ...       0.06
freq.     749.62  E(vib)   ...       0.06
freq.     768.33  E(vib)   ...       0.06
freq.     782.01  E(vib)   ...       0.05
freq.     799.95  E(vib)   ...       0.05
freq.     977.06  E(vib)   ...       0.03
freq.    1053.12  E(vib)   ...       0.02
freq.    1064.84  E(vib)   ...       0.02
freq.    1863.54  E(vib)   ...       0.00
freq.    1907.32  E(vib)   ...       0.00
freq.    1942.44  E(vib)   ...       0.00
freq.    1985.86  E(vib)   ...       0.00
freq.    1998.47  E(vib)   ...       0.00
freq.    2006.21  E(vib)   ...       0.00
freq.    2010.29  E(vib)   ...       0.00
freq.    2016.36  E(vib)   ...       0.00
freq.    2018.20  E(vib)   ...       0.00
freq.    2019.50  E(vib)   ...       0.00
freq.    2030.69  E(vib)   ...       0.00
freq.    2110.65  E(vib)   ...       0.00

------------
INNER ENERGY
------------

The inner energy is: U= E(el) + E(ZPE) + E(vib) + E(rot) + E(trans)
    E(el)   - is the total energy from the electronic structure calculation
              = E(kin-el) + E(nuc-el) + E(el-el) + E(nuc-nuc)
    E(ZPE)  - the the zero temperature vibrational energy from the frequency calculation
    E(vib)  - the the finite temperature correction to E(ZPE) due to population
              of excited vibrational states
    E(rot)  - is the rotational thermal energy
    E(trans)- is the translational thermal energy

Summary of contributions to the inner energy U:
Electronic energy                ...   -975.59329060 Eh
Zero point energy                ...      0.08935922 Eh      56.07 kcal/mol
Thermal vibrational correction   ...      0.00911891 Eh       5.72 kcal/mol
Thermal rotational correction    ...      0.00141627 Eh       0.89 kcal/mol
Thermal translational correction ...      0.00141627 Eh       0.89 kcal/mol
-----------------------------------------------------------------------
Total thermal energy                   -975.49197993 Eh

Summary of corrections to the electronic energy:
(perhaps to be used in another calculation)
Total thermal correction                  0.01195146 Eh       7.50 kcal/mol
Non-thermal (ZPE) correction              0.08935922 Eh      56.07 kcal/mol
-----------------------------------------------------------------------
Total correction                          0.10131068 Eh      63.57 kcal/mol

--------
ENTHALPY
--------

The enthalpy is H = U + kB*T
                kB is Boltzmann's constant
Total thermal energy              ...   -975.49197993 Eh
Thermal Enthalpy correction       ...      0.00094421 Eh       0.59 kcal/mol
-----------------------------------------------------------------------
Total Enthalpy                    ...   -975.49103572 Eh

Note: Only C1 symmetry has been detected, increase convergence thresholds
      if your molecule has a higher symmetry. Symmetry factor of 1.0 is
      used for the rotational entropy correction.

Note: Rotational entropy computed according to Herzberg
Infrared and Raman Spectra, Chapter V,1, Van Nostrand Reinhold, 1945
Point Group:  C1, Symmetry Number:   1
Rotational constants in cm-1:     0.053698     0.048923     0.031768

Vibrational entropy computed according to the QRRHO of S. Grimme
Chem.Eur.J. 2012 18 9955 using a reference frequency of 100.0 cm-1

-------
ENTROPY
-------

The entropy contributions are T*S = T*(S(el)+S(vib)+S(rot)+S(trans))
     S(el)   - electronic entropy
     S(vib)  - vibrational entropy
     S(rot)  - rotational entropy
     S(trans)- translational entropy
The entropies will be listed as multiplied by the temperature to get
units of energy

Electronic entropy                ...      0.00000000 Eh      0.00 kcal/mol
Vibrational entropy               ...      0.01584084 Eh      9.94 kcal/mol
Rotational entropy                ...      0.01394429 Eh      8.75 kcal/mol
Translational entropy             ...      0.01912974 Eh     12.00 kcal/mol
-----------------------------------------------------------------------
Final entropy term                ...      0.04891487 Eh     30.69 kcal/mol

In case the symmetry of your molecule has not been determined correctly
or in case you have a reason to use a different symmetry number we print
out the resulting rotational entropy values for sn=1,12:

 non-linear molecules -----------------------------------
|  sn= 1 | S(rot)=       0.01394429 Eh      8.75 kcal/mol|
|  sn= 2 | S(rot)=       0.01328984 Eh      8.34 kcal/mol|
|  sn= 3 | S(rot)=       0.01290701 Eh      8.10 kcal/mol|
|  sn= 4 | S(rot)=       0.01263538 Eh      7.93 kcal/mol|
|  sn= 5 | S(rot)=       0.01242469 Eh      7.80 kcal/mol|
|  sn= 6 | S(rot)=       0.01225255 Eh      7.69 kcal/mol|
|  sn= 7 | S(rot)=       0.01210700 Eh      7.60 kcal/mol|
|  sn= 8 | S(rot)=       0.01198093 Eh      7.52 kcal/mol|
|  sn= 9 | S(rot)=       0.01186972 Eh      7.45 kcal/mol|
|  sn=10 | S(rot)=       0.01177024 Eh      7.39 kcal/mol|
|  sn=11 | S(rot)=       0.01168025 Eh      7.33 kcal/mol|
|  sn=12 | S(rot)=       0.01159809 Eh      7.28 kcal/mol|
 linear molecules ---------------------------------------
|  Dinfh | S(rot)=       0.00858257 Eh      5.39 kcal/mol|
|  Cinfv | S(rot)=       0.00923702 Eh      5.80 kcal/mol|
 --------------------------------------------------------

                             ****ORCA TERMINATED NORMALLY****
TOTAL RUN TIME: 0 days 0 hours 22 minutes 13 seconds 956 msec
