                         Program Version 6.1.0  -  RELEASE   -
|  1> # Geometry optimization for (AlH3)n cluster
|  2>
|  3> %pal nprocs 24  end
|  4>
|  5> %geom MaxIter 500 end
|  6>
|  7>
|  8> ! PBE def2-SV(P)
|  9> ! RKS	# closed shell for AlH3
| 10> ! D3    #  dispersion correction
| 11> ! gCP(DFT/SV(P))
| 12> ! Freq 	# Frequency analysis to check the stabiltity of the structures
| 13>
| 14> ! NoPop # population analysis not necessary
| 15>
| 16> ! RI
| 17> ! DEFGRID2
| 18> ! NormalSCF
| 19> ! SloppyOpt
| 20>
| 21> ! SmallPrint
| 22>
| 23>
| 24> * xyzFile 0 1 start.xyz # only maingroup elements H and Al so there should be no net spin
| 25>
| 26>                          ****END OF INPUT****
 Total Charge           Charge          ....    0
 Multiplicity           Mult            ....    1
 Number of Electrons    NEL             ....   48
Dispersion correction           -0.008909393
FINAL SINGLE POINT ENERGY      -731.923831662683
Dispersion correction             ... done (  0.1 sec)
Dispersion correction           -0.008893722
FINAL SINGLE POINT ENERGY      -731.928979473906
Dispersion correction             ... done (  0.1 sec)
Dispersion correction           -0.008873465
FINAL SINGLE POINT ENERGY      -731.935871906768
Dispersion correction             ... done (  0.1 sec)
FINAL SINGLE POINT ENERGY      -731.939369398502
Dispersion correction             ... done (  0.1 sec)
Dispersion correction           -0.008869905
FINAL SINGLE POINT ENERGY      -731.943036855489
Dispersion correction             ... done (  0.1 sec)
Dispersion correction           -0.008879635
FINAL SINGLE POINT ENERGY      -731.945199977715
Dispersion correction             ... done (  0.1 sec)
                    ***********************HURRAY********************

CARTESIAN COORDINATES (ANGSTROEM)
---------------------------------
  Al    -0.258579    1.539702    2.581007
  Al    -0.000252    0.001670   -0.113484
  H      0.816754   -1.090248    0.987539
  H     -1.194614   -0.836359   -0.806320
  H     -0.828443    1.073036    0.997580
  H     -1.557725    2.155734    3.315573
  H      0.001783   -0.002324    3.331374
  H      1.204104    0.844661   -0.781969
  Al     0.281396   -1.547539    2.587859
  H      1.616744   -2.105143    3.303059
  H     -1.195297   -2.180369    2.404401
  H      1.221068    2.155490    2.363742

 Multiplicity           Mult            ....    1
 Number of Electrons    NEL             ....   48
 Basis Dimension        Dim             ....   72

ORBITAL ENERGIES
----------------

  NO   OCC          E(Eh)            E(eV)
   0   2.0000     -55.396012     -1507.4021
   1   2.0000     -55.395241     -1507.3811
   2   2.0000     -55.395169     -1507.3792
   3   2.0000      -3.952977      -107.5660
   4   2.0000      -3.952267      -107.5467
   5   2.0000      -3.951930      -107.5375
   6   2.0000      -2.561457       -69.7008
   7   2.0000      -2.560747       -69.6815
   8   2.0000      -2.560523       -69.6754
   9   2.0000      -2.560063       -69.6629
  10   2.0000      -2.559228       -69.6401
  11   2.0000      -2.558869       -69.6304
  12   2.0000      -2.553477       -69.4836
  13   2.0000      -2.552872       -69.4672
  14   2.0000      -2.552430       -69.4552
  15   2.0000      -0.478074       -13.0091
  16   2.0000      -0.396285       -10.7835
  17   2.0000      -0.395398       -10.7593
  18   2.0000      -0.311871        -8.4864
  19   2.0000      -0.307309        -8.3623
  20   2.0000      -0.292108        -7.9487
  21   2.0000      -0.289157        -7.8684
  22   2.0000      -0.276856        -7.5336
  23   2.0000      -0.271677        -7.3927
  24   0.0000      -0.057127        -1.5545
  25   0.0000      -0.054284        -1.4771
  26   0.0000      -0.050888        -1.3847
  27   0.0000      -0.048106        -1.3090
  28   0.0000      -0.009899        -0.2694

-------
TIMINGS
-------

Dispersion correction           -0.008883316
FINAL SINGLE POINT ENERGY      -731.945468050002

DIPOLE MOMENT
-------------

Method             : SCF
Type of density    : Electron Density
Multiplicity       :   1
Irrep              :   0
Energy             :  -731.9747981850200631 Eh
Basis              : AO
                                X                 Y                 Z
Electronic contribution:     -0.026580885      -0.052449246       0.115465985
Nuclear contribution   :      0.014577657       0.028827117      -0.044721623
                        -----------------------------------------
Total Dipole Moment    :     -0.012003227      -0.023622129       0.070744362
                        -----------------------------------------
Magnitude (a.u.)       :      0.075543677
Magnitude (Debye)      :      0.192016768

VIBRATIONAL FREQUENCIES
-----------------------

Scaling factor for frequencies =  1.000000000  (already applied!)

     0:       0.00 cm**-1
     1:       0.00 cm**-1
     2:       0.00 cm**-1
     3:       0.00 cm**-1
     4:       0.00 cm**-1
     5:       0.00 cm**-1
     6:     -49.60 cm**-1  ***imaginary mode***
     7:     137.13 cm**-1
     8:     148.92 cm**-1
     9:     211.81 cm**-1
    10:     278.97 cm**-1
    11:     309.24 cm**-1
    12:     424.55 cm**-1
    13:     436.48 cm**-1
    14:     453.98 cm**-1
    15:     490.41 cm**-1
    16:     527.66 cm**-1
    17:     576.13 cm**-1
    18:     658.70 cm**-1
    19:     660.83 cm**-1
    20:     695.65 cm**-1
    21:     736.78 cm**-1
    22:     748.79 cm**-1
    23:     753.49 cm**-1
    24:    1017.56 cm**-1
    25:    1036.40 cm**-1
    26:    1078.37 cm**-1
    27:    1674.72 cm**-1
    28:    1714.51 cm**-1
    29:    1769.47 cm**-1
    30:    1865.86 cm**-1
    31:    1869.12 cm**-1
    32:    1870.59 cm**-1
    33:    1886.48 cm**-1
    34:    1888.36 cm**-1
    35:    1893.99 cm**-1

IR SPECTRUM
-----------

 Mode   freq       eps      Int      T**2         TX        TY        TZ
       cm**-1   L/(mol*cm) km/mol    a.u.
----------------------------------------------------------------------------
  7:    137.13   0.000179    0.91  0.000408  ( 0.001959  0.001872  0.020027)
  8:    148.92   0.000037    0.19  0.000078  (-0.006884 -0.003892  0.003869)
  9:    211.81   0.000305    1.54  0.000449  (-0.000050 -0.000113  0.021198)
 10:    278.97   0.001194    6.03  0.001335  ( 0.030153 -0.020644  0.000269)
 11:    309.24   0.000112    0.56  0.000113  ( 0.004768 -0.002229 -0.009223)
 12:    424.55   0.000507    2.56  0.000372  (-0.016134  0.010576  0.000379)
 13:    436.48   0.000087    0.44  0.000062  ( 0.001121 -0.000879  0.007745)
 14:    453.98   0.003116   15.75  0.002142  (-0.000110  0.000872 -0.046274)
 15:    490.41   0.000005    0.03  0.000003  ( 0.000582  0.000900 -0.001445)
 16:    527.66   0.016105   81.39  0.009525  (-0.068327  0.069629 -0.002782)
 17:    576.13   0.028018  141.59  0.015176  ( 0.003369 -0.004643 -0.123058)
 18:    658.70   0.107704  544.29  0.051025  ( 0.008336  0.203646 -0.097386)
 19:    660.83   0.090627  457.99  0.042797  ( 0.006743  0.108128  0.176237)
 20:    695.65   0.000284    1.44  0.000127  ( 0.002156  0.010400 -0.003827)
 21:    736.78   0.031597  159.68  0.013383  ( 0.066236 -0.094814  0.002485)
 22:    748.79   0.038557  194.85  0.016069  ( 0.061368  0.110236  0.012288)
 23:    753.49   0.031999  161.71  0.013253  ( 0.003950  0.012053 -0.114420)
 24:   1017.56   0.036741  185.68  0.011268  (-0.017097  0.010449  0.104241)
 25:   1036.40   0.043018  217.40  0.012953  ( 0.099778 -0.052949  0.013918)
 26:   1078.37   0.000682    3.45  0.000197  ( 0.012520 -0.005394  0.003388)
 27:   1674.72   0.022689  114.66  0.004228  ( 0.008796 -0.064424 -0.000207)
 28:   1714.51   0.205718  1039.61  0.037443  ( 0.001340 -0.001944  0.193489)
 29:   1769.47   0.191269  966.60  0.033732  ( 0.023576 -0.182144  0.000004)
 30:   1865.86   0.000044    0.22  0.000007  ( 0.002277  0.000247 -0.001470)
 31:   1869.12   0.002053   10.37  0.000343  (-0.001405 -0.001149 -0.018425)
 32:   1870.59   0.004155   21.00  0.000693  (-0.026163  0.002910  0.000503)
 33:   1886.48   0.007127   36.01  0.001179  ( 0.014592 -0.025495 -0.017776)
 34:   1888.36   0.007117   35.97  0.001176  ( 0.009346  0.019493 -0.026624)
 35:   1893.99   0.073368  370.77  0.012089  (-0.106201 -0.028180 -0.003970)

--------------------------
THERMOCHEMISTRY AT 298.15K
--------------------------

Temperature         ...   298.15 K
Pressure            ...     1.00 atm
Total Mass          ...    90.02 AMU
Quasi RRHO          ...     True
Cut-Off Frequency   ...     1.00 cm^-1

Throughout the following assumptions are being made:
  (1) The electronic state is orbitally nondegenerate
  (2) There are no thermally accessible electronically excited states
  (3) Hindered rotations indicated by low frequency modes are not
      treated as such but are treated as vibrations and this may
      cause some error
  (4) All equations used are the standard statistical mechanics
      equations for an ideal gas
  (5) All vibrations are strictly harmonic

freq.     137.13  E(vib)   ...       0.42
freq.     148.92  E(vib)   ...       0.40
freq.     211.81  E(vib)   ...       0.34
freq.     278.97  E(vib)   ...       0.28
freq.     309.24  E(vib)   ...       0.26
freq.     424.55  E(vib)   ...       0.18
freq.     436.48  E(vib)   ...       0.17
freq.     453.98  E(vib)   ...       0.16
freq.     490.41  E(vib)   ...       0.15
freq.     527.66  E(vib)   ...       0.13
freq.     576.13  E(vib)   ...       0.11
freq.     658.70  E(vib)   ...       0.08
freq.     660.83  E(vib)   ...       0.08
freq.     695.65  E(vib)   ...       0.07
freq.     736.78  E(vib)   ...       0.06
freq.     748.79  E(vib)   ...       0.06
freq.     753.49  E(vib)   ...       0.06
freq.    1017.56  E(vib)   ...       0.02
freq.    1036.40  E(vib)   ...       0.02
freq.    1078.37  E(vib)   ...       0.02
freq.    1674.72  E(vib)   ...       0.00
freq.    1714.51  E(vib)   ...       0.00
freq.    1769.47  E(vib)   ...       0.00
freq.    1865.86  E(vib)   ...       0.00
freq.    1869.12  E(vib)   ...       0.00
freq.    1870.59  E(vib)   ...       0.00
freq.    1886.48  E(vib)   ...       0.00
freq.    1888.36  E(vib)   ...       0.00
freq.    1893.99  E(vib)   ...       0.00

------------
INNER ENERGY
------------

The inner energy is: U= E(el) + E(ZPE) + E(vib) + E(rot) + E(trans)
    E(el)   - is the total energy from the electronic structure calculation
              = E(kin-el) + E(nuc-el) + E(el-el) + E(nuc-nuc)
    E(ZPE)  - the the zero temperature vibrational energy from the frequency calculation
    E(vib)  - the the finite temperature correction to E(ZPE) due to population
              of excited vibrational states
    E(rot)  - is the rotational thermal energy
    E(trans)- is the translational thermal energy

Summary of contributions to the inner energy U:
Electronic energy                ...   -731.94546805 Eh
Zero point energy                ...      0.06336708 Eh      39.76 kcal/mol
Thermal vibrational correction   ...      0.00490716 Eh       3.08 kcal/mol
Thermal rotational correction    ...      0.00141627 Eh       0.89 kcal/mol
Thermal translational correction ...      0.00141627 Eh       0.89 kcal/mol
-----------------------------------------------------------------------
Total thermal energy                   -731.87436126 Eh

Summary of corrections to the electronic energy:
(perhaps to be used in another calculation)
Total thermal correction                  0.00773971 Eh       4.86 kcal/mol
Non-thermal (ZPE) correction              0.06336708 Eh      39.76 kcal/mol
-----------------------------------------------------------------------
Total correction                          0.07110679 Eh      44.62 kcal/mol

--------
ENTHALPY
--------

The enthalpy is H = U + kB*T
                kB is Boltzmann's constant
Total thermal energy              ...   -731.87436126 Eh
Thermal Enthalpy correction       ...      0.00094421 Eh       0.59 kcal/mol
-----------------------------------------------------------------------
Total Enthalpy                    ...   -731.87341705 Eh

Note: Only C1 symmetry has been detected, increase convergence thresholds
      if your molecule has a higher symmetry. Symmetry factor of 1.0 is
      used for the rotational entropy correction.

Note: Rotational entropy computed according to Herzberg
Infrared and Raman Spectra, Chapter V,1, Van Nostrand Reinhold, 1945
Point Group:  C1, Symmetry Number:   1
Rotational constants in cm-1:     0.102004     0.100688     0.054662

Vibrational entropy computed according to the QRRHO of S. Grimme
Chem.Eur.J. 2012 18 9955 using a reference frequency of 100.0 cm-1

-------
ENTROPY
-------

The entropy contributions are T*S = T*(S(el)+S(vib)+S(rot)+S(trans))
     S(el)   - electronic entropy
     S(vib)  - vibrational entropy
     S(rot)  - rotational entropy
     S(trans)- translational entropy
The entropies will be listed as multiplied by the temperature to get
units of energy

Electronic entropy                ...      0.00000000 Eh      0.00 kcal/mol
Vibrational entropy               ...      0.00793649 Eh      4.98 kcal/mol
Rotational entropy                ...      0.01304443 Eh      8.19 kcal/mol
Translational entropy             ...      0.01872231 Eh     11.75 kcal/mol
-----------------------------------------------------------------------
Final entropy term                ...      0.03970323 Eh     24.91 kcal/mol

In case the symmetry of your molecule has not been determined correctly
or in case you have a reason to use a different symmetry number we print
out the resulting rotational entropy values for sn=1,12:

 non-linear molecules -----------------------------------
|  sn= 1 | S(rot)=       0.01304443 Eh      8.19 kcal/mol|
|  sn= 2 | S(rot)=       0.01238998 Eh      7.77 kcal/mol|
|  sn= 3 | S(rot)=       0.01200714 Eh      7.53 kcal/mol|
|  sn= 4 | S(rot)=       0.01173552 Eh      7.36 kcal/mol|
|  sn= 5 | S(rot)=       0.01152483 Eh      7.23 kcal/mol|
|  sn= 6 | S(rot)=       0.01135269 Eh      7.12 kcal/mol|
|  sn= 7 | S(rot)=       0.01120714 Eh      7.03 kcal/mol|
|  sn= 8 | S(rot)=       0.01108106 Eh      6.95 kcal/mol|
|  sn= 9 | S(rot)=       0.01096986 Eh      6.88 kcal/mol|
|  sn=10 | S(rot)=       0.01087038 Eh      6.82 kcal/mol|
|  sn=11 | S(rot)=       0.01078039 Eh      6.76 kcal/mol|
|  sn=12 | S(rot)=       0.01069823 Eh      6.71 kcal/mol|
 linear molecules ---------------------------------------
|  Dinfh | S(rot)=       0.00807015 Eh      5.06 kcal/mol|
|  Cinfv | S(rot)=       0.00872461 Eh      5.47 kcal/mol|
 --------------------------------------------------------

-------------------
GIBBS FREE ENERGY
-------------------

The Gibbs free energy is G = H - T*S

Total enthalpy                    ...   -731.87341705 Eh
Total entropy correction          ...     -0.03970323 Eh    -24.91 kcal/mol
-----------------------------------------------------------------------
Final Gibbs free energy         ...   -731.91312028 Eh

For completeness - the Gibbs free energy minus the electronic energy
G-E(el)                           ...      0.03234777 Eh     20.30 kcal/mol

                             ****ORCA TERMINATED NORMALLY****
TOTAL RUN TIME: 0 days 0 hours 0 minutes 59 seconds 341 msec
