                         Program Version 6.1.0  -  RELEASE   -
|  1> # Geometry optimization for (AlH3)n cluster
|  2>
|  3> %pal nprocs 24  end
|  4>
|  5> %geom MaxIter 500 end
|  6>
|  7> %cpcm
|  8> 	epsilon 1.95778548766667
|  9> end
| 10>
| 11> %elprop Polar 1 end # invoke raman
| 12>
| 13> ! PBEh-3c
| 14> ! RKS	# closed shell for AlH3
| 15> ! Freq 	# Frequency analysis to check the stabiltity of the structures
| 16>
| 17>
| 18> ! NoPop # population analysis not necessary
| 19>
| 20> ! DEFGRID3
| 21> ! ExtremeSCF
| 22> ! VeryTightOpt
| 23>
| 24>
| 25> ! SmallPrint
| 26>
| 27>
| 28> * xyzFile 0 1 start.xyz # only maingroup elements H and Al so there should be no net spin
| 29>
| 30>                          ****END OF INPUT****
 Total Charge           Charge          ....    0
 Multiplicity           Mult            ....    1
 Number of Electrons    NEL             ....   16
Dispersion correction           -0.000533367
FINAL SINGLE POINT ENERGY      -243.866592242939
Dispersion correction             ... done (  0.1 sec)
Dispersion correction           -0.000533857
FINAL SINGLE POINT ENERGY      -243.866705901356
Dispersion correction             ... done (  0.1 sec)
Dispersion correction           -0.000534752
FINAL SINGLE POINT ENERGY      -243.866781681668
Dispersion correction             ... done (  0.1 sec)
Dispersion correction           -0.000534725
FINAL SINGLE POINT ENERGY      -243.866781753542
Dispersion correction             ... done (  0.1 sec)
                    ***********************HURRAY********************

CARTESIAN COORDINATES (ANGSTROEM)
---------------------------------
  Al    -1.365060    0.622414   -0.208549
  H     -0.546672    0.416740    1.127393
  H     -1.298288    2.004742   -0.971180
  H     -2.250429   -0.554245   -0.781594

 Multiplicity           Mult            ....    1
 Number of Electrons    NEL             ....   16
 Basis Dimension        Dim             ....   24

ORBITAL ENERGIES
----------------

  NO   OCC          E(Eh)            E(eV)
   0   2.0000     -56.603233     -1540.2523
   1   2.0000      -4.347108      -118.2908
   2   2.0000      -2.840779       -77.3015
   3   2.0000      -2.832068       -77.0645
   4   2.0000      -2.832067       -77.0645
   5   2.0000      -0.470499       -12.8029
   6   2.0000      -0.349892        -9.5210
   7   2.0000      -0.349881        -9.5208
   8   0.0000      -0.036753        -1.0001
   9   0.0000       0.100536         2.7357
  10   0.0000       0.107661         2.9296
  11   0.0000       0.107683         2.9302
  12   0.0000       0.126769         3.4496

-------
TIMINGS
-------

Dispersion correction           -0.000534725
FINAL SINGLE POINT ENERGY      -243.866781753695

DIPOLE MOMENT
-------------

Method             : SCF
Type of density    : Electron Density
Multiplicity       :   1
Irrep              :   0
Energy             :  -243.8709257926102225 Eh
Basis              : AO
                                X                 Y                 Z
Electronic contribution:      0.000441233       0.000104144      -0.000488197
Nuclear contribution   :     -0.000182609      -0.000004824       0.000232532
                        -----------------------------------------
Total Dipole Moment    :      0.000258625       0.000099319      -0.000255665
                        -----------------------------------------
Magnitude (a.u.)       :      0.000376983
Magnitude (Debye)      :      0.000958213

VIBRATIONAL FREQUENCIES
-----------------------

Scaling factor for frequencies =  1.000000000  (already applied!)

     0:       0.00 cm**-1
     1:       0.00 cm**-1
     2:       0.00 cm**-1
     3:       0.00 cm**-1
     4:       0.00 cm**-1
     5:       0.00 cm**-1
     6:     688.66 cm**-1
     7:     781.32 cm**-1
     8:     782.31 cm**-1
     9:    1984.37 cm**-1
    10:    1985.53 cm**-1
    11:    1985.96 cm**-1

IR SPECTRUM
-----------

 Mode   freq       eps      Int      T**2         TX        TY        TZ
       cm**-1   L/(mol*cm) km/mol    a.u.
----------------------------------------------------------------------------
  6:    688.66   0.096230  486.31  0.043606  (-0.163164  0.069182  0.110443)
  7:    781.32   0.059977  303.10  0.023955  ( 0.040064  0.145938 -0.032441)
  8:    782.31   0.059866  302.54  0.023881  (-0.087800 -0.004112 -0.127102)
  9:   1984.37   0.001598    8.08  0.000251  (-0.006755 -0.014298 -0.001131)
 10:   1985.53   0.063387  320.33  0.009962  (-0.020516  0.066376 -0.071665)
 11:   1985.96   0.062300  314.84  0.009790  (-0.058462 -0.065681 -0.045363)

--------------------------
THERMOCHEMISTRY AT 298.15K
--------------------------

Temperature         ...   298.15 K
Pressure            ...     1.00 atm
Total Mass          ...    30.01 AMU
Quasi RRHO          ...     True
Cut-Off Frequency   ...     1.00 cm^-1

Throughout the following assumptions are being made:
  (1) The electronic state is orbitally nondegenerate
  (2) There are no thermally accessible electronically excited states
  (3) Hindered rotations indicated by low frequency modes are not
      treated as such but are treated as vibrations and this may
      cause some error
  (4) All equations used are the standard statistical mechanics
      equations for an ideal gas
  (5) All vibrations are strictly harmonic

freq.     688.66  E(vib)   ...       0.07
freq.     781.32  E(vib)   ...       0.05
freq.     782.31  E(vib)   ...       0.05
freq.    1984.37  E(vib)   ...       0.00
freq.    1985.53  E(vib)   ...       0.00
freq.    1985.96  E(vib)   ...       0.00

------------
INNER ENERGY
------------

The inner energy is: U= E(el) + E(ZPE) + E(vib) + E(rot) + E(trans)
    E(el)   - is the total energy from the electronic structure calculation
              = E(kin-el) + E(nuc-el) + E(el-el) + E(nuc-nuc)
    E(ZPE)  - the the zero temperature vibrational energy from the frequency calculation
    E(vib)  - the the finite temperature correction to E(ZPE) due to population
              of excited vibrational states
    E(rot)  - is the rotational thermal energy
    E(trans)- is the translational thermal energy

Summary of contributions to the inner energy U:
Electronic energy                ...   -243.86678175 Eh
Zero point energy                ...      0.01869954 Eh      11.73 kcal/mol
Thermal vibrational correction   ...      0.00028683 Eh       0.18 kcal/mol
Thermal rotational correction    ...      0.00141627 Eh       0.89 kcal/mol
Thermal translational correction ...      0.00141627 Eh       0.89 kcal/mol
-----------------------------------------------------------------------
Total thermal energy                   -243.84496285 Eh

Summary of corrections to the electronic energy:
(perhaps to be used in another calculation)
Total thermal correction                  0.00311937 Eh       1.96 kcal/mol
Non-thermal (ZPE) correction              0.01869954 Eh      11.73 kcal/mol
-----------------------------------------------------------------------
Total correction                          0.02181891 Eh      13.69 kcal/mol

--------
ENTHALPY
--------

The enthalpy is H = U + kB*T
                kB is Boltzmann's constant
Total thermal energy              ...   -243.84496285 Eh
Thermal Enthalpy correction       ...      0.00094421 Eh       0.59 kcal/mol
-----------------------------------------------------------------------
Total Enthalpy                    ...   -243.84401864 Eh

Note: Rotational entropy computed according to Herzberg
Infrared and Raman Spectra, Chapter V,1, Van Nostrand Reinhold, 1945
Point Group:  Cs, Symmetry Number:   1
Rotational constants in cm-1:     4.465759     4.464963     2.232680

Vibrational entropy computed according to the QRRHO of S. Grimme
Chem.Eur.J. 2012 18 9955 using a reference frequency of 100.0 cm-1

-------
ENTROPY
-------

The entropy contributions are T*S = T*(S(el)+S(vib)+S(rot)+S(trans))
     S(el)   - electronic entropy
     S(vib)  - vibrational entropy
     S(rot)  - rotational entropy
     S(trans)- translational entropy
The entropies will be listed as multiplied by the temperature to get
units of energy

Electronic entropy                ...      0.00000000 Eh      0.00 kcal/mol
Vibrational entropy               ...      0.00036587 Eh      0.23 kcal/mol
Rotational entropy                ...      0.00771880 Eh      4.84 kcal/mol
Translational entropy             ...      0.01716637 Eh     10.77 kcal/mol
-----------------------------------------------------------------------
Final entropy term                ...      0.02525104 Eh     15.85 kcal/mol

In case the symmetry of your molecule has not been determined correctly
or in case you have a reason to use a different symmetry number we print
out the resulting rotational entropy values for sn=1,12:

 non-linear molecules -----------------------------------
|  sn= 1 | S(rot)=       0.00771880 Eh      4.84 kcal/mol|
|  sn= 2 | S(rot)=       0.00706434 Eh      4.43 kcal/mol|
|  sn= 3 | S(rot)=       0.00668151 Eh      4.19 kcal/mol|
|  sn= 4 | S(rot)=       0.00640989 Eh      4.02 kcal/mol|
|  sn= 5 | S(rot)=       0.00619920 Eh      3.89 kcal/mol|
|  sn= 6 | S(rot)=       0.00602706 Eh      3.78 kcal/mol|
|  sn= 7 | S(rot)=       0.00588151 Eh      3.69 kcal/mol|
|  sn= 8 | S(rot)=       0.00575543 Eh      3.61 kcal/mol|
|  sn= 9 | S(rot)=       0.00564422 Eh      3.54 kcal/mol|
|  sn=10 | S(rot)=       0.00554474 Eh      3.48 kcal/mol|
|  sn=11 | S(rot)=       0.00545475 Eh      3.42 kcal/mol|
|  sn=12 | S(rot)=       0.00537260 Eh      3.37 kcal/mol|
 linear molecules ---------------------------------------
|  Dinfh | S(rot)=       0.00456744 Eh      2.87 kcal/mol|
|  Cinfv | S(rot)=       0.00522189 Eh      3.28 kcal/mol|
 --------------------------------------------------------

-------------------
GIBBS FREE ENERGY
-------------------

The Gibbs free energy is G = H - T*S

Total enthalpy                    ...   -243.84401864 Eh
Total entropy correction          ...     -0.02525104 Eh    -15.85 kcal/mol
-----------------------------------------------------------------------
Final Gibbs free energy         ...   -243.86926968 Eh

For completeness - the Gibbs free energy minus the electronic energy
G-E(el)                           ...     -0.00248792 Eh     -1.56 kcal/mol

                             ****ORCA TERMINATED NORMALLY****
TOTAL RUN TIME: 0 days 0 hours 0 minutes 57 seconds 605 msec
