                         Program Version 6.1.0  -  RELEASE   -
|  1> # Geometry optimization for UiO-66-dehydrox SBU
|  2>
|  3> %pal nprocs 24 end
|  4>
|  5> ! PBE 	# functional used for the MOF calculations later (non-expensive)
|  6> ! RKS	# closed shell for SBU
|  7> ! D3  # better geometries at low cost
|  8> ! def2-SV(P) # Ahlrichs basis set triple zeta with core potentials and auxilarry basis set for coulomb integrals
|  9> ! Freq 	# Frequency analysis to check the stabiltity of the structures
| 10>
| 11> ! NoPop # population analysis not necessary
| 12>
| 13> ! RI 		# speed up calculation
| 14> ! DEFGRID2 # dense Grid
| 15> ! NormalSCF # tight SCF criteria as basis for Geom.-Opt.
| 16> ! SloppyOpt # tight convergence criteria for geometry optimizations
| 17>
| 18> ! SmallPrint
| 19>
| 20>
| 21> * xyzFile 0 1 start.xyz # no spin
| 22>
| 23>                          ****END OF INPUT****
 Total Charge           Charge          ....    0
 Multiplicity           Mult            ....    1
 Number of Electrons    NEL             ....  396
Dispersion correction           -0.130349181
FINAL SINGLE POINT ENERGY     -3000.891514744400
Dispersion correction             ... done (  0.1 sec)
Dispersion correction           -0.130333508
FINAL SINGLE POINT ENERGY     -3000.892720618065
Dispersion correction             ... done (  0.1 sec)
                    ***********************HURRAY********************

CARTESIAN COORDINATES (ANGSTROEM)
---------------------------------
  Zr    -0.174878    2.060513    1.470508
  Zr     0.174878   -2.060513   -1.470508
  Zr     1.726552   -1.129632    1.478909
  Zr    -1.726551    1.129632   -1.478909
  Zr     1.730565    1.028062   -1.546260
  Zr    -1.730564   -1.028062    1.546261
  O     -1.747013    0.782363    0.566510
  O      1.747013   -0.782363   -0.566510
  O     -0.135161   -1.913140    0.559483
  O      0.135161    1.913140   -0.559483
  O     -0.140530   -0.077862   -1.994284
  O      0.140531    0.077862    1.994284
  O     -1.477437    2.101670    3.256513
  O     -1.649039    3.662964    1.026388
  O      1.531608    2.089721    2.893705
  O      1.199318    3.784138    0.964233
  O     -1.199318   -3.784138   -0.964234
  O     -1.531608   -2.089720   -2.893706
  O      1.649038   -3.662964   -1.026388
  O      1.477437   -2.101670   -3.256513
  O      1.111112   -2.474721    3.136972
  O      2.444799    0.044992    3.272574
  O      2.608916   -3.082897    0.940162
  O      3.729586   -0.269861    1.046935
  O     -3.729586    0.269860   -1.046935
  O     -2.608917    3.082896   -0.940162
  O     -2.444799   -0.044991   -3.272575
  O     -1.111112    2.474722   -3.136972
  O      1.147799    2.347249   -3.222311
  O      2.566251    2.854363   -0.593204
  O      2.441067   -0.055090   -3.351068
  O      3.899181    0.674862   -1.011568
  O     -3.899181   -0.674862    1.011569
  O     -2.441067    0.055090    3.351069
  O     -2.566251   -2.854363    0.593205
  O     -1.147799   -2.347249    3.222311
  C     -2.217179    1.219763    3.787149
  C     -2.449629    3.838578    0.064689
  C      2.165754    1.232211    3.589639
  C      2.112040    3.824086    0.096410
  C     -2.112041   -3.824086   -0.096410
  C     -2.165754   -1.232210   -3.589640
  C      2.449629   -3.838578   -0.064688
  C      2.217179   -1.219763   -3.787149
  C     -0.020403   -2.775211    3.612555
  C      4.367604    0.107176    0.011158
  C     -4.367604   -0.107177   -0.011158
  C      0.020403    2.775211   -3.612555
  H     -2.528048   -1.583076   -4.590479
  H      3.086425   -4.758671   -0.102681
  H      2.528049    1.583076    4.590478
  H     -3.086426    4.758670    0.102681
  H      2.725824   -1.504442   -4.743034
  H      0.029594    3.495211   -4.469898
  H      2.592548    4.820882   -0.081238
  H      5.473440   -0.074568    0.022313
  H     -2.592548   -4.820882    0.081238
  H     -5.473440    0.074568   -0.022313
  H     -2.725824    1.504442    4.743034
  H     -0.029594   -3.495210    4.469899

 Multiplicity           Mult            ....    1
 Number of Electrons    NEL             ....  396
 Basis Dimension        Dim             ....  756

ORBITAL ENERGIES
----------------

  NO   OCC          E(Eh)            E(eV)
   0   2.0000     -18.787948      -511.2461
   1   2.0000     -18.787929      -511.2455
   2   2.0000     -18.787925      -511.2454
   3   2.0000     -18.787919      -511.2453
   4   2.0000     -18.787916      -511.2452
   5   2.0000     -18.787907      -511.2449
   6   2.0000     -18.786951      -511.2189
   7   2.0000     -18.786937      -511.2186
   8   2.0000     -18.786933      -511.2184
   9   2.0000     -18.786917      -511.2180
  10   2.0000     -18.786902      -511.2176
  11   2.0000     -18.786882      -511.2170
  12   2.0000     -18.782016      -511.0846
  13   2.0000     -18.781994      -511.0841
  14   2.0000     -18.781970      -511.0834
  15   2.0000     -18.781937      -511.0825
  16   2.0000     -18.781923      -511.0821
  17   2.0000     -18.781919      -511.0820
  18   2.0000     -18.781899      -511.0815
  19   2.0000     -18.781883      -511.0810
  20   2.0000     -18.781881      -511.0810
  21   2.0000     -18.781870      -511.0807
  22   2.0000     -18.781864      -511.0805
  23   2.0000     -18.781852      -511.0802
  24   2.0000     -18.752819      -510.2902
  25   2.0000     -18.752817      -510.2901
  26   2.0000     -18.752668      -510.2860
  27   2.0000     -18.752661      -510.2858
  28   2.0000     -18.752605      -510.2843
  29   2.0000     -18.752582      -510.2837
  30   2.0000     -10.037506      -273.1344
  31   2.0000     -10.037500      -273.1343
  32   2.0000     -10.037490      -273.1340
  33   2.0000     -10.037480      -273.1337
  34   2.0000     -10.037475      -273.1336
  35   2.0000     -10.037461      -273.1332
  36   2.0000     -10.031409      -272.9685
  37   2.0000     -10.031399      -272.9682
  38   2.0000     -10.031395      -272.9681
  39   2.0000     -10.031390      -272.9680
  40   2.0000     -10.031347      -272.9668
  41   2.0000     -10.031340      -272.9667
  42   2.0000      -2.044439       -55.6320
  43   2.0000      -2.043957       -55.6189
  44   2.0000      -2.043940       -55.6184
  45   2.0000      -2.043595       -55.6091
  46   2.0000      -2.043540       -55.6075
  47   2.0000      -2.043520       -55.6070
  48   2.0000      -1.229358       -33.4525
  49   2.0000      -1.225684       -33.3526
  50   2.0000      -1.225667       -33.3521
  51   2.0000      -1.223505       -33.2933
  52   2.0000      -1.222644       -33.2698
  53   2.0000      -1.222634       -33.2696
  54   2.0000      -1.219135       -33.1744
  55   2.0000      -1.217848       -33.1393
  56   2.0000      -1.217828       -33.1388
  57   2.0000      -1.217665       -33.1343
  58   2.0000      -1.217654       -33.1341
  59   2.0000      -1.216004       -33.0891
  60   2.0000      -1.213777       -33.0286
  61   2.0000      -1.213766       -33.0283
  62   2.0000      -1.212548       -32.9951
  63   2.0000      -1.212387       -32.9907
  64   2.0000      -1.212366       -32.9902
  65   2.0000      -1.212274       -32.9877
  66   2.0000      -0.998926       -27.1821
  67   2.0000      -0.997199       -27.1352
  68   2.0000      -0.997153       -27.1339
  69   2.0000      -0.996666       -27.1207
  70   2.0000      -0.996633       -27.1198
  71   2.0000      -0.995827       -27.0978
  72   2.0000      -0.991378       -26.9768
  73   2.0000      -0.990803       -26.9611
  74   2.0000      -0.988864       -26.9083
  75   2.0000      -0.988800       -26.9066
  76   2.0000      -0.988634       -26.9021
  77   2.0000      -0.988573       -26.9004
  78   2.0000      -0.917216       -24.9587
  79   2.0000      -0.916771       -24.9466
  80   2.0000      -0.916733       -24.9456
  81   2.0000      -0.915496       -24.9119
  82   2.0000      -0.915484       -24.9116
  83   2.0000      -0.914215       -24.8771
  84   2.0000      -0.910893       -24.7866
  85   2.0000      -0.910821       -24.7847
  86   2.0000      -0.910197       -24.7677
  87   2.0000      -0.910126       -24.7658
  88   2.0000      -0.907385       -24.6912
  89   2.0000      -0.907285       -24.6885
  90   2.0000      -0.825939       -22.4749
  91   2.0000      -0.816812       -22.2266
  92   2.0000      -0.816691       -22.2233
  93   2.0000      -0.807031       -21.9604
  94   2.0000      -0.806995       -21.9594
  95   2.0000      -0.804135       -21.8816
  96   2.0000      -0.559573       -15.2268
  97   2.0000      -0.557643       -15.1742
  98   2.0000      -0.557600       -15.1731
  99   2.0000      -0.555742       -15.1225
 100   2.0000      -0.554019       -15.0756
 101   2.0000      -0.554006       -15.0753
 102   2.0000      -0.552052       -15.0221
 103   2.0000      -0.550548       -14.9812
 104   2.0000      -0.545718       -14.8497
 105   2.0000      -0.545674       -14.8486
 106   2.0000      -0.545019       -14.8307
 107   2.0000      -0.544962       -14.8292
 108   2.0000      -0.471281       -12.8242
 109   2.0000      -0.471238       -12.8230
 110   2.0000      -0.470640       -12.8068
 111   2.0000      -0.468346       -12.7443
 112   2.0000      -0.468298       -12.7430
 113   2.0000      -0.466192       -12.6857
 114   2.0000      -0.465999       -12.6805
 115   2.0000      -0.465970       -12.6797
 116   2.0000      -0.462176       -12.5765
 117   2.0000      -0.462102       -12.5744
 118   2.0000      -0.461545       -12.5593
 119   2.0000      -0.458555       -12.4779
 120   2.0000      -0.457173       -12.4403
 121   2.0000      -0.456216       -12.4143
 122   2.0000      -0.456187       -12.4135
 123   2.0000      -0.455427       -12.3928
 124   2.0000      -0.455385       -12.3917
 125   2.0000      -0.455159       -12.3855
 126   2.0000      -0.443145       -12.0586
 127   2.0000      -0.443086       -12.0570
 128   2.0000      -0.442467       -12.0401
 129   2.0000      -0.442396       -12.0382
 130   2.0000      -0.441609       -12.0168
 131   2.0000      -0.441280       -12.0078
 132   2.0000      -0.423274       -11.5179
 133   2.0000      -0.418042       -11.3755
 134   2.0000      -0.417987       -11.3740
 135   2.0000      -0.417887       -11.3713
 136   2.0000      -0.407599       -11.0913
 137   2.0000      -0.407565       -11.0904
 138   2.0000      -0.406519       -11.0620
 139   2.0000      -0.401472       -10.9246
 140   2.0000      -0.401424       -10.9233
 141   2.0000      -0.401113       -10.9148
 142   2.0000      -0.398904       -10.8547
 143   2.0000      -0.398847       -10.8532
 144   2.0000      -0.367955       -10.0126
 145   2.0000      -0.364461        -9.9175
 146   2.0000      -0.363031        -9.8786
 147   2.0000      -0.362971        -9.8769
 148   2.0000      -0.355793        -9.6816
 149   2.0000      -0.355236        -9.6665
 150   2.0000      -0.355195        -9.6654
 151   2.0000      -0.331021        -9.0076
 152   2.0000      -0.330953        -9.0057
 153   2.0000      -0.327698        -8.9171
 154   2.0000      -0.326861        -8.8943
 155   2.0000      -0.326729        -8.8907
 156   2.0000      -0.319101        -8.6832
 157   2.0000      -0.319089        -8.6829
 158   2.0000      -0.310277        -8.4431
 159   2.0000      -0.307334        -8.3630
 160   2.0000      -0.303716        -8.2645
 161   2.0000      -0.303654        -8.2628
 162   2.0000      -0.300425        -8.1750
 163   2.0000      -0.296310        -8.0630
 164   2.0000      -0.296268        -8.0619
 165   2.0000      -0.296036        -8.0556
 166   2.0000      -0.292825        -7.9682
 167   2.0000      -0.292765        -7.9665
 168   2.0000      -0.287858        -7.8330
 169   2.0000      -0.287806        -7.8316
 170   2.0000      -0.287092        -7.8122
 171   2.0000      -0.286274        -7.7899
 172   2.0000      -0.283466        -7.7135
 173   2.0000      -0.281997        -7.6735
 174   2.0000      -0.281986        -7.6732
 175   2.0000      -0.279534        -7.6065
 176   2.0000      -0.279312        -7.6005
 177   2.0000      -0.279300        -7.6001
 178   2.0000      -0.278325        -7.5736
 179   2.0000      -0.278320        -7.5735
 180   2.0000      -0.277338        -7.5468
 181   2.0000      -0.272975        -7.4280
 182   2.0000      -0.272343        -7.4108
 183   2.0000      -0.272326        -7.4104
 184   2.0000      -0.269877        -7.3437
 185   2.0000      -0.269328        -7.3288
 186   2.0000      -0.269250        -7.3267
 187   2.0000      -0.268556        -7.3078
 188   2.0000      -0.268504        -7.3064
 189   2.0000      -0.266647        -7.2558
 190   2.0000      -0.266377        -7.2485
 191   2.0000      -0.264148        -7.1878
 192   2.0000      -0.264117        -7.1870
 193   2.0000      -0.257201        -6.9988
 194   2.0000      -0.257166        -6.9978
 195   2.0000      -0.233384        -6.3507
 196   2.0000      -0.233301        -6.3485
 197   2.0000      -0.229369        -6.2414
 198   0.0000      -0.115778        -3.1505
 199   0.0000      -0.113107        -3.0778
 200   0.0000      -0.085902        -2.3375
 201   0.0000      -0.085842        -2.3359
 202   0.0000      -0.082596        -2.2475

-------
TIMINGS
-------

Dispersion correction           -0.130365124
FINAL SINGLE POINT ENERGY     -3000.892792019925

DIPOLE MOMENT
-------------

Method             : SCF
Type of density    : Electron Density
Multiplicity       :   1
Irrep              :   0
Energy             : -3000.7624268962736096 Eh
Basis              : AO
                                X                 Y                 Z
Electronic contribution:      0.000007548      -0.000008181       0.000000348
Nuclear contribution   :     -0.000007516       0.000006503      -0.000000836
                        -----------------------------------------
Total Dipole Moment    :      0.000000032      -0.000001678      -0.000000487
                        -----------------------------------------
Magnitude (a.u.)       :      0.000001748
Magnitude (Debye)      :      0.000004443

VIBRATIONAL FREQUENCIES
-----------------------

Scaling factor for frequencies =  1.000000000  (already applied!)

     0:       0.00 cm**-1
     1:       0.00 cm**-1
     2:       0.00 cm**-1
     3:       0.00 cm**-1
     4:       0.00 cm**-1
     5:       0.00 cm**-1
     6:      40.62 cm**-1
     7:      43.45 cm**-1
     8:      56.63 cm**-1
     9:      59.29 cm**-1
    10:      61.56 cm**-1
    11:      66.06 cm**-1
    12:      80.61 cm**-1
    13:      81.31 cm**-1
    14:      96.00 cm**-1
    15:      97.67 cm**-1
    16:      98.26 cm**-1
    17:     100.54 cm**-1
    18:     104.11 cm**-1
    19:     104.56 cm**-1
    20:     107.25 cm**-1
    21:     107.57 cm**-1
    22:     121.13 cm**-1
    23:     126.84 cm**-1
    24:     128.37 cm**-1
    25:     134.95 cm**-1
    26:     152.90 cm**-1
    27:     152.98 cm**-1
    28:     153.44 cm**-1
    29:     153.67 cm**-1
    30:     157.90 cm**-1
    31:     158.47 cm**-1
    32:     163.75 cm**-1
    33:     163.83 cm**-1
    34:     164.22 cm**-1
    35:     166.85 cm**-1
    36:     170.91 cm**-1
    37:     173.07 cm**-1
    38:     173.99 cm**-1
    39:     188.34 cm**-1
    40:     188.79 cm**-1
    41:     193.19 cm**-1
    42:     193.19 cm**-1
    43:     194.07 cm**-1
    44:     194.61 cm**-1
    45:     209.93 cm**-1
    46:     210.55 cm**-1
    47:     214.21 cm**-1
    48:     214.59 cm**-1
    49:     227.37 cm**-1
    50:     228.00 cm**-1
    51:     235.71 cm**-1
    52:     236.05 cm**-1
    53:     249.04 cm**-1
    54:     263.69 cm**-1
    55:     267.77 cm**-1
    56:     268.34 cm**-1
    57:     268.93 cm**-1
    58:     269.59 cm**-1
    59:     274.14 cm**-1
    60:     276.44 cm**-1
    61:     276.83 cm**-1
    62:     277.69 cm**-1
    63:     279.68 cm**-1
    64:     279.93 cm**-1
    65:     281.09 cm**-1
    66:     293.29 cm**-1
    67:     293.52 cm**-1
    68:     297.92 cm**-1
    69:     298.05 cm**-1
    70:     302.03 cm**-1
    71:     304.52 cm**-1
    72:     313.74 cm**-1
    73:     314.01 cm**-1
    74:     315.86 cm**-1
    75:     321.72 cm**-1
    76:     321.78 cm**-1
    77:     325.80 cm**-1
    78:     327.48 cm**-1
    79:     327.74 cm**-1
    80:     335.60 cm**-1
    81:     335.82 cm**-1
    82:     336.72 cm**-1
    83:     348.95 cm**-1
    84:     349.28 cm**-1
    85:     363.23 cm**-1
    86:     363.36 cm**-1
    87:     375.39 cm**-1
    88:     375.51 cm**-1
    89:     398.49 cm**-1
    90:     403.71 cm**-1
    91:     412.30 cm**-1
    92:     415.29 cm**-1
    93:     415.77 cm**-1
    94:     429.28 cm**-1
    95:     429.87 cm**-1
    96:     434.65 cm**-1
    97:     435.04 cm**-1
    98:     487.61 cm**-1
    99:     488.03 cm**-1
   100:     493.78 cm**-1
   101:     542.05 cm**-1
   102:     547.60 cm**-1
   103:     638.69 cm**-1
   104:     689.76 cm**-1
   105:     690.23 cm**-1
   106:     697.52 cm**-1
   107:     698.34 cm**-1
   108:     739.04 cm**-1
   109:     739.49 cm**-1
   110:     739.65 cm**-1
   111:     739.87 cm**-1
   112:     739.96 cm**-1
   113:     741.34 cm**-1
   114:     742.31 cm**-1
   115:     742.52 cm**-1
   116:     743.23 cm**-1
   117:     743.34 cm**-1
   118:     744.42 cm**-1
   119:     744.67 cm**-1
   120:    1001.55 cm**-1
   121:    1001.58 cm**-1
   122:    1001.94 cm**-1
   123:    1001.96 cm**-1
   124:    1003.49 cm**-1
   125:    1003.56 cm**-1
   126:    1006.20 cm**-1
   127:    1006.38 cm**-1
   128:    1006.57 cm**-1
   129:    1007.06 cm**-1
   130:    1007.21 cm**-1
   131:    1007.49 cm**-1
   132:    1355.11 cm**-1
   133:    1355.53 cm**-1
   134:    1356.21 cm**-1
   135:    1356.34 cm**-1
   136:    1356.56 cm**-1
   137:    1356.83 cm**-1
   138:    1358.03 cm**-1
   139:    1358.74 cm**-1
   140:    1358.86 cm**-1
   141:    1359.42 cm**-1
   142:    1359.62 cm**-1
   143:    1360.02 cm**-1
   144:    1369.92 cm**-1
   145:    1369.98 cm**-1
   146:    1370.08 cm**-1
   147:    1370.13 cm**-1
   148:    1374.54 cm**-1
   149:    1374.72 cm**-1
   150:    1379.33 cm**-1
   151:    1381.03 cm**-1
   152:    1381.25 cm**-1
   153:    1385.22 cm**-1
   154:    1385.53 cm**-1
   155:    1393.43 cm**-1
   156:    1563.53 cm**-1
   157:    1573.88 cm**-1
   158:    1583.75 cm**-1
   159:    1583.84 cm**-1
   160:    1590.39 cm**-1
   161:    1596.54 cm**-1
   162:    1596.86 cm**-1
   163:    1650.82 cm**-1
   164:    1651.02 cm**-1
   165:    1656.43 cm**-1
   166:    1656.86 cm**-1
   167:    1657.18 cm**-1
   168:    2949.27 cm**-1
   169:    2949.30 cm**-1
   170:    2949.44 cm**-1
   171:    2949.46 cm**-1
   172:    2950.50 cm**-1
   173:    2951.27 cm**-1
   174:    2964.22 cm**-1
   175:    2964.43 cm**-1
   176:    2964.55 cm**-1
   177:    2965.08 cm**-1
   178:    2965.20 cm**-1
   179:    2966.56 cm**-1

IR SPECTRUM
-----------

 Mode   freq       eps      Int      T**2         TX        TY        TZ
       cm**-1   L/(mol*cm) km/mol    a.u.
----------------------------------------------------------------------------
  6:     40.62   0.000023    0.12  0.000176  ( 0.002628  0.004467 -0.012205)
  7:     43.45   0.000021    0.11  0.000152  (-0.006942  0.009635  0.003342)
  8:     56.63   0.000000    0.00  0.000000  (-0.000000 -0.000000 -0.000000)
  9:     59.29   0.000000    0.00  0.000000  ( 0.000000  0.000000  0.000000)
 10:     61.56   0.000000    0.00  0.000000  ( 0.000000 -0.000000 -0.000000)
 11:     66.06   0.000003    0.02  0.000016  (-0.003280 -0.001755 -0.001293)
 12:     80.61   0.000025    0.12  0.000095  (-0.003651  0.007917 -0.004403)
 13:     81.31   0.000024    0.12  0.000091  ( 0.004524 -0.002471 -0.008036)
 14:     96.00   0.000000    0.00  0.000000  ( 0.000000  0.000000  0.000000)
 15:     97.67   0.000000    0.00  0.000000  ( 0.000000 -0.000000 -0.000000)
 16:     98.26   0.000000    0.00  0.000000  ( 0.000000  0.000000 -0.000000)
 17:    100.54   0.000017    0.08  0.000052  ( 0.005495  0.003330  0.003212)
 18:    104.11   0.000135    0.68  0.000406  (-0.010360  0.005315  0.016449)
 19:    104.56   0.000127    0.64  0.000379  (-0.005429  0.016538 -0.008734)
 20:    107.25   0.000000    0.00  0.000000  (-0.000000 -0.000000  0.000000)
 21:    107.57   0.000000    0.00  0.000000  (-0.000000  0.000000  0.000000)
 22:    121.13   0.000000    0.00  0.000000  (-0.000000 -0.000000 -0.000000)
 23:    126.84   0.000000    0.00  0.000000  (-0.000000 -0.000000 -0.000000)
 24:    128.37   0.000019    0.10  0.000047  ( 0.005569  0.003565  0.001900)
 25:    134.95   0.000002    0.01  0.000004  ( 0.001512  0.000433  0.001077)
 26:    152.90   0.000000    0.00  0.000000  ( 0.000000 -0.000001  0.000000)
 27:    152.98   0.000000    0.00  0.000000  ( 0.000000 -0.000000 -0.000000)
 28:    153.44   0.000890    4.50  0.001810  ( 0.024951 -0.031217 -0.014587)
 29:    153.67   0.000898    4.54  0.001825  (-0.004187 -0.019889  0.037570)
 30:    157.90   0.000000    0.00  0.000000  (-0.000000 -0.000000 -0.000000)
 31:    158.47   0.000000    0.00  0.000000  ( 0.000000 -0.000000 -0.000000)
 32:    163.75   0.000131    0.66  0.000249  (-0.005961  0.014569 -0.001121)
 33:    163.83   0.000000    0.00  0.000000  ( 0.000000 -0.000001  0.000000)
 34:    164.22   0.000130    0.66  0.000247  (-0.008152 -0.001926  0.013301)
 35:    166.85   0.001716    8.67  0.003209  (-0.045586 -0.026529 -0.020665)
 36:    170.91   0.000024    0.12  0.000043  (-0.004764 -0.003486 -0.002864)
 37:    173.07   0.000000    0.00  0.000000  ( 0.000000  0.000000  0.000000)
 38:    173.99   0.000000    0.00  0.000000  ( 0.000000  0.000000 -0.000000)
 39:    188.34   0.000000    0.00  0.000000  ( 0.000000 -0.000000  0.000000)
 40:    188.79   0.000000    0.00  0.000000  (-0.000000 -0.000000 -0.000000)
 41:    193.19   0.000000    0.00  0.000000  ( 0.000312  0.000110  0.000153)
 42:    193.19   0.000409    2.07  0.000661  ( 0.022010  0.007809  0.010768)
 43:    194.07   0.000163    0.82  0.000262  (-0.001098 -0.014732  0.006650)
 44:    194.61   0.000168    0.85  0.000269  (-0.008578  0.007280  0.011939)
 45:    209.93   0.000126    0.64  0.000187  (-0.010318 -0.006326 -0.006353)
 46:    210.55   0.000000    0.00  0.000000  ( 0.000000  0.000000  0.000000)
 47:    214.21   0.003097   15.65  0.004512  ( 0.033315 -0.058174  0.004219)
 48:    214.59   0.003055   15.44  0.004442  (-0.021902 -0.008962  0.062307)
 49:    227.37   0.000000    0.00  0.000000  ( 0.000000  0.000000 -0.000000)
 50:    228.00   0.000000    0.00  0.000000  ( 0.000000 -0.000000 -0.000000)
 51:    235.71   0.000335    1.69  0.000444  (-0.006040 -0.004126  0.019757)
 52:    236.05   0.000304    1.53  0.000402  ( 0.010520 -0.016991 -0.001466)
 53:    249.04   0.000000    0.00  0.000000  ( 0.000000 -0.000000 -0.000000)
 54:    263.69   0.000551    2.78  0.000652  ( 0.018719  0.012363  0.012192)
 55:    267.77   0.001019    5.15  0.001187  (-0.015052 -0.003997  0.030733)
 56:    268.34   0.001010    5.11  0.001175  (-0.016687  0.029418 -0.005566)
 57:    268.93   0.000000    0.00  0.000000  ( 0.000000 -0.000000 -0.000000)
 58:    269.59   0.000000    0.00  0.000000  ( 0.000000 -0.000001  0.000000)
 59:    274.14   0.000000    0.00  0.000000  (-0.000000  0.000000 -0.000000)
 60:    276.44   0.000000    0.00  0.000000  ( 0.000000 -0.000000 -0.000000)
 61:    276.83   0.000000    0.00  0.000000  (-0.000000  0.000000 -0.000000)
 62:    277.69   0.000000    0.00  0.000000  ( 0.000000 -0.000000 -0.000000)
 63:    279.68   0.001289    6.52  0.001439  ( 0.014599  0.003594 -0.034823)
 64:    279.93   0.001180    5.96  0.001315  ( 0.016902 -0.032066  0.001149)
 65:    281.09   0.000136    0.69  0.000151  (-0.006338  0.005949 -0.008681)
 66:    293.29   0.000000    0.00  0.000000  (-0.000000  0.000000  0.000000)
 67:    293.52   0.000000    0.00  0.000000  ( 0.000000 -0.000000  0.000000)
 68:    297.92   0.001484    7.50  0.001555  ( 0.005517  0.016126 -0.035554)
 69:    298.05   0.001517    7.67  0.001589  ( 0.022630 -0.031229 -0.010058)
 70:    302.03   0.000000    0.00  0.000000  ( 0.000000 -0.000000 -0.000000)
 71:    304.52   0.000101    0.51  0.000103  ( 0.008819  0.003978  0.003099)
 72:    313.74   0.001264    6.39  0.001258  (-0.015528  0.030910 -0.007819)
 73:    314.01   0.001273    6.43  0.001265  (-0.015538  0.002690  0.031876)
 74:    315.86   0.000000    0.00  0.000000  (-0.000000  0.000000  0.000000)
 75:    321.72   0.000000    0.00  0.000000  ( 0.000000  0.000000 -0.000000)
 76:    321.78   0.000000    0.00  0.000000  ( 0.000000  0.000000  0.000000)
 77:    325.80   0.022251  112.45  0.021313  (-0.117686 -0.070306 -0.050205)
 78:    327.48   0.000000    0.00  0.000000  (-0.000001 -0.000000 -0.000001)
 79:    327.74   0.000000    0.00  0.000000  ( 0.000002  0.000001  0.000001)
 80:    335.60   0.017313   87.49  0.016098  ( 0.004515 -0.079647  0.098663)
 81:    335.82   0.017042   86.13  0.015837  (-0.075206  0.076933  0.065284)
 82:    336.72   0.000421    2.13  0.000390  (-0.011621 -0.014676 -0.006322)
 83:    348.95   0.000000    0.00  0.000000  (-0.000000  0.000000  0.000000)
 84:    349.28   0.000000    0.00  0.000000  ( 0.000000  0.000000 -0.000000)
 85:    363.23   0.027956  141.28  0.024018  (-0.066352  0.012564  0.139490)
 86:    363.36   0.027810  140.54  0.023884  ( 0.063668 -0.134288  0.042390)
 87:    375.39   0.000494    2.50  0.000411  (-0.016229 -0.008540 -0.008619)
 88:    375.51   0.000000    0.00  0.000000  (-0.000001 -0.000000 -0.000000)
 89:    398.49   0.088032  444.88  0.068938  ( 0.211765  0.126556  0.089876)
 90:    403.71   0.000000    0.00  0.000000  ( 0.000001  0.000000 -0.000000)
 91:    412.30   0.000000    0.00  0.000000  (-0.000000 -0.000000  0.000000)
 92:    415.29   0.046099  232.97  0.034640  (-0.108367  0.106646  0.107347)
 93:    415.77   0.045972  232.33  0.034505  (-0.015431  0.123203 -0.138161)
 94:    429.28   0.000000    0.00  0.000000  ( 0.000000 -0.000000 -0.000000)
 95:    429.87   0.000000    0.00  0.000000  (-0.000000 -0.000000  0.000000)
 96:    434.65   0.000000    0.00  0.000000  ( 0.000000  0.000000 -0.000000)
 97:    435.04   0.000000    0.00  0.000000  (-0.000000 -0.000000 -0.000000)
 98:    487.61   0.046116  233.05  0.029513  (-0.022057  0.122760 -0.118138)
 99:    488.03   0.046136  233.15  0.029501  ( 0.099684 -0.087327 -0.109262)
100:    493.78   0.000000    0.00  0.000000  (-0.000000  0.000000  0.000000)
101:    542.05   0.109318  552.45  0.062935  (-0.202080 -0.120729 -0.086736)
102:    547.60   0.000000    0.00  0.000000  ( 0.000000  0.000000  0.000000)
103:    638.69   0.000670    3.39  0.000327  (-0.015305 -0.006282 -0.007329)
104:    689.76   0.113147  571.80  0.051191  ( 0.124828 -0.185837 -0.032758)
105:    690.23   0.113182  571.97  0.051171  ( 0.048225  0.069484 -0.209804)
106:    697.52   0.000000    0.00  0.000000  (-0.000000 -0.000000  0.000000)
107:    698.34   0.000000    0.00  0.000000  ( 0.000000 -0.000001  0.000001)
108:    739.04   0.000048    0.24  0.000020  (-0.003855 -0.002255 -0.000624)
109:    739.49   0.010107   51.08  0.004265  (-0.000395  0.041649 -0.050303)
110:    739.65   0.000000    0.00  0.000000  ( 0.000001 -0.000000 -0.000001)
111:    739.87   0.009890   49.98  0.004172  (-0.041313  0.039955  0.029468)
112:    739.96   0.000000    0.00  0.000000  (-0.000001  0.000000  0.000000)
113:    741.34   0.000000    0.00  0.000000  ( 0.000000 -0.000000 -0.000000)
114:    742.31   0.000000    0.00  0.000000  (-0.000000  0.000000  0.000000)
115:    742.52   0.000000    0.00  0.000000  ( 0.000000  0.000000 -0.000000)
116:    743.23   0.003344   16.90  0.001404  (-0.016378  0.031561  0.011829)
117:    743.34   0.003786   19.13  0.001589  (-0.017432 -0.017235  0.031440)
118:    744.42   0.009495   47.98  0.003980  ( 0.048637  0.025886  0.030736)
119:    744.67   0.000000    0.00  0.000000  ( 0.000001  0.000000  0.000000)
120:   1001.55   0.000000    0.00  0.000000  ( 0.000003 -0.000003 -0.000003)
121:   1001.58   0.000152    0.77  0.000047  (-0.003367  0.004063  0.004427)
122:   1001.94   0.000000    0.00  0.000000  ( 0.000000  0.000001 -0.000001)
123:   1001.96   0.000152    0.77  0.000047  ( 0.000238  0.005174 -0.004513)
124:   1003.49   0.000143    0.72  0.000044  ( 0.005594  0.002049  0.002995)
125:   1003.56   0.000000    0.00  0.000000  (-0.000001 -0.000000 -0.000001)
126:   1006.20   0.000000    0.00  0.000000  (-0.000000  0.000000 -0.000000)
127:   1006.38   0.000001    0.01  0.000000  ( 0.000141  0.000156 -0.000521)
128:   1006.57   0.000001    0.00  0.000000  (-0.000253  0.000346 -0.000151)
129:   1007.06   0.000000    0.00  0.000000  ( 0.000000  0.000000  0.000000)
130:   1007.21   0.000000    0.00  0.000000  ( 0.000000  0.000000  0.000000)
131:   1007.49   0.000004    0.02  0.000001  (-0.000840 -0.000511 -0.000389)
132:   1355.11   0.000000    0.00  0.000000  (-0.000000  0.000001  0.000001)
133:   1355.53   0.031451  158.94  0.007240  (-0.059590 -0.053513 -0.028738)
134:   1356.21   0.010851   54.83  0.002497  ( 0.042079 -0.020568 -0.017407)
135:   1356.34   0.008704   43.99  0.002003  (-0.014187  0.021107 -0.036822)
136:   1356.56   0.000000    0.00  0.000000  (-0.000000 -0.000002  0.000001)
137:   1356.83   0.000000    0.00  0.000000  ( 0.000000 -0.000000  0.000000)
138:   1358.03   0.000000    0.00  0.000000  (-0.000000  0.000001 -0.000000)
139:   1358.74   0.028800  145.54  0.006614  (-0.031476  0.004004  0.074885)
140:   1358.86   0.027106  136.98  0.006225  ( 0.028974 -0.070494  0.020399)
141:   1359.42   0.000000    0.00  0.000000  (-0.000000 -0.000001  0.000002)
142:   1359.62   0.000000    0.00  0.000000  (-0.000002 -0.000001 -0.000001)
143:   1360.02   0.013997   70.74  0.003212  ( 0.050093  0.019460  0.017990)
144:   1369.92   0.013424   67.84  0.003058  ( 0.002989 -0.038939  0.039151)
145:   1369.98   0.000000    0.00  0.000000  ( 0.000001 -0.000001 -0.000003)
146:   1370.08   0.013856   70.02  0.003156  (-0.030437  0.032302  0.034441)
147:   1370.13   0.000000    0.00  0.000000  ( 0.000001 -0.000003  0.000000)
148:   1374.54   0.121947  616.27  0.027686  ( 0.134727  0.079153  0.057177)
149:   1374.72   0.000000    0.00  0.000000  (-0.000000 -0.000000 -0.000000)
150:   1379.33   0.001275    6.44  0.000288  (-0.009928 -0.012164 -0.006474)
151:   1381.03   0.000000    0.00  0.000000  (-0.000000 -0.000000  0.000001)
152:   1381.25   0.000000    0.00  0.000000  (-0.000000  0.000000 -0.000000)
153:   1385.22   0.164059  829.09  0.036959  ( 0.054271  0.038543 -0.180356)
154:   1385.53   0.164172  829.66  0.036977  ( 0.100610 -0.163794 -0.005076)
155:   1393.43   0.000000    0.00  0.000000  (-0.000000  0.000000 -0.000000)
156:   1563.53   0.000000    0.00  0.000000  (-0.000000  0.000000  0.000000)
157:   1573.88   0.000994    5.02  0.000197  ( 0.011659  0.006425  0.004455)
158:   1583.75   0.003102   15.68  0.000611  (-0.011126  0.003601  0.021781)
159:   1583.84   0.003083   15.58  0.000608  (-0.008950  0.021746 -0.007385)
160:   1590.39   0.000000    0.00  0.000000  ( 0.000000 -0.000000 -0.000000)
161:   1596.54   0.000000    0.00  0.000000  ( 0.000000  0.000000 -0.000000)
162:   1596.86   0.000000    0.00  0.000000  (-0.000000  0.000000  0.000000)
163:   1650.82   0.334896  1692.43  0.063307  (-0.149461  0.134252  0.151476)
164:   1651.02   0.335638  1696.18  0.063440  (-0.022728  0.176104 -0.178636)
165:   1656.43   0.275574  1392.64  0.051917  (-0.181835 -0.107936 -0.084871)
166:   1656.86   0.000000    0.00  0.000000  ( 0.000006  0.000005  0.000003)
167:   1657.18   0.000000    0.00  0.000000  (-0.000003 -0.000002 -0.000002)
168:   2949.27   0.000000    0.00  0.000000  ( 0.000104 -0.000181  0.000016)
169:   2949.30   0.021635  109.33  0.002289  ( 0.025957 -0.040169  0.001373)
170:   2949.44   0.000000    0.00  0.000000  (-0.000086 -0.000030  0.000129)
171:   2949.46   0.022466  113.53  0.002377  (-0.022914 -0.013147  0.040976)
172:   2950.50   0.077810  393.22  0.008230  ( 0.070673  0.043693  0.036412)
173:   2951.27   0.000000    0.00  0.000000  (-0.000007 -0.000006 -0.000002)
174:   2964.22   0.000769    3.88  0.000081  (-0.007909 -0.000343  0.004271)
175:   2964.43   0.000000    0.00  0.000000  ( 0.000005 -0.000014  0.000006)
176:   2964.55   0.000000    0.00  0.000000  (-0.000001 -0.000003  0.000003)
177:   2965.08   0.065566  331.34  0.006901  (-0.025807  0.069780 -0.036950)
178:   2965.20   0.065084  328.91  0.006850  (-0.041248  0.020926  0.068631)
179:   2966.56   0.000000    0.00  0.000000  ( 0.000003 -0.000003 -0.000004)

--------------------------
THERMOCHEMISTRY AT 298.15K
--------------------------

Temperature         ...   298.15 K
Pressure            ...     1.00 atm
Total Mass          ...  1183.52 AMU
Quasi RRHO          ...     True
Cut-Off Frequency   ...     1.00 cm^-1

Throughout the following assumptions are being made:
  (1) The electronic state is orbitally nondegenerate
  (2) There are no thermally accessible electronically excited states
  (3) Hindered rotations indicated by low frequency modes are not
      treated as such but are treated as vibrations and this may
      cause some error
  (4) All equations used are the standard statistical mechanics
      equations for an ideal gas
  (5) All vibrations are strictly harmonic

freq.      40.62  E(vib)   ...       0.54
freq.      43.45  E(vib)   ...       0.53
freq.      56.63  E(vib)   ...       0.52
freq.      59.29  E(vib)   ...       0.51
freq.      61.56  E(vib)   ...       0.51
freq.      66.06  E(vib)   ...       0.50
freq.      80.61  E(vib)   ...       0.48
freq.      81.31  E(vib)   ...       0.48
freq.      96.00  E(vib)   ...       0.47
freq.      97.67  E(vib)   ...       0.46
freq.      98.26  E(vib)   ...       0.46
freq.     100.54  E(vib)   ...       0.46
freq.     104.11  E(vib)   ...       0.46
freq.     104.56  E(vib)   ...       0.46
freq.     107.25  E(vib)   ...       0.45
freq.     107.57  E(vib)   ...       0.45
freq.     121.13  E(vib)   ...       0.44
freq.     126.84  E(vib)   ...       0.43
freq.     128.37  E(vib)   ...       0.43
freq.     134.95  E(vib)   ...       0.42
freq.     152.90  E(vib)   ...       0.40
freq.     152.98  E(vib)   ...       0.40
freq.     153.44  E(vib)   ...       0.40
freq.     153.67  E(vib)   ...       0.40
freq.     157.90  E(vib)   ...       0.40
freq.     158.47  E(vib)   ...       0.39
freq.     163.75  E(vib)   ...       0.39
freq.     163.83  E(vib)   ...       0.39
freq.     164.22  E(vib)   ...       0.39
freq.     166.85  E(vib)   ...       0.39
freq.     170.91  E(vib)   ...       0.38
freq.     173.07  E(vib)   ...       0.38
freq.     173.99  E(vib)   ...       0.38
freq.     188.34  E(vib)   ...       0.36
freq.     188.79  E(vib)   ...       0.36
freq.     193.19  E(vib)   ...       0.36
freq.     193.19  E(vib)   ...       0.36
freq.     194.07  E(vib)   ...       0.36
freq.     194.61  E(vib)   ...       0.36
freq.     209.93  E(vib)   ...       0.34
freq.     210.55  E(vib)   ...       0.34
freq.     214.21  E(vib)   ...       0.34
freq.     214.59  E(vib)   ...       0.34
freq.     227.37  E(vib)   ...       0.33
freq.     228.00  E(vib)   ...       0.33
freq.     235.71  E(vib)   ...       0.32
freq.     236.05  E(vib)   ...       0.32
freq.     249.04  E(vib)   ...       0.31
freq.     263.69  E(vib)   ...       0.29
freq.     267.77  E(vib)   ...       0.29
freq.     268.34  E(vib)   ...       0.29
freq.     268.93  E(vib)   ...       0.29
freq.     269.59  E(vib)   ...       0.29
freq.     274.14  E(vib)   ...       0.28
freq.     276.44  E(vib)   ...       0.28
freq.     276.83  E(vib)   ...       0.28
freq.     277.69  E(vib)   ...       0.28
freq.     279.68  E(vib)   ...       0.28
freq.     279.93  E(vib)   ...       0.28
freq.     281.09  E(vib)   ...       0.28
freq.     293.29  E(vib)   ...       0.27
freq.     293.52  E(vib)   ...       0.27
freq.     297.92  E(vib)   ...       0.27
freq.     298.05  E(vib)   ...       0.27
freq.     302.03  E(vib)   ...       0.26
freq.     304.52  E(vib)   ...       0.26
freq.     313.74  E(vib)   ...       0.25
freq.     314.01  E(vib)   ...       0.25
freq.     315.86  E(vib)   ...       0.25
freq.     321.72  E(vib)   ...       0.25
freq.     321.78  E(vib)   ...       0.25
freq.     325.80  E(vib)   ...       0.24
freq.     327.48  E(vib)   ...       0.24
freq.     327.74  E(vib)   ...       0.24
freq.     335.60  E(vib)   ...       0.24
freq.     335.82  E(vib)   ...       0.24
freq.     336.72  E(vib)   ...       0.24
freq.     348.95  E(vib)   ...       0.23
freq.     349.28  E(vib)   ...       0.23
freq.     363.23  E(vib)   ...       0.22
freq.     363.36  E(vib)   ...       0.22
freq.     375.39  E(vib)   ...       0.21
freq.     375.51  E(vib)   ...       0.21
freq.     398.49  E(vib)   ...       0.20
freq.     403.71  E(vib)   ...       0.19
freq.     412.30  E(vib)   ...       0.19
freq.     415.29  E(vib)   ...       0.18
freq.     415.77  E(vib)   ...       0.18
freq.     429.28  E(vib)   ...       0.18
freq.     429.87  E(vib)   ...       0.18
freq.     434.65  E(vib)   ...       0.17
freq.     435.04  E(vib)   ...       0.17
freq.     487.61  E(vib)   ...       0.15
freq.     488.03  E(vib)   ...       0.15
freq.     493.78  E(vib)   ...       0.14
freq.     542.05  E(vib)   ...       0.12
freq.     547.60  E(vib)   ...       0.12
freq.     638.69  E(vib)   ...       0.09
freq.     689.76  E(vib)   ...       0.07
freq.     690.23  E(vib)   ...       0.07
freq.     697.52  E(vib)   ...       0.07
freq.     698.34  E(vib)   ...       0.07
freq.     739.04  E(vib)   ...       0.06
freq.     739.49  E(vib)   ...       0.06
freq.     739.65  E(vib)   ...       0.06
freq.     739.87  E(vib)   ...       0.06
freq.     739.96  E(vib)   ...       0.06
freq.     741.34  E(vib)   ...       0.06
freq.     742.31  E(vib)   ...       0.06
freq.     742.52  E(vib)   ...       0.06
freq.     743.23  E(vib)   ...       0.06
freq.     743.34  E(vib)   ...       0.06
freq.     744.42  E(vib)   ...       0.06
freq.     744.67  E(vib)   ...       0.06
freq.    1001.55  E(vib)   ...       0.02
freq.    1001.58  E(vib)   ...       0.02
freq.    1001.94  E(vib)   ...       0.02
freq.    1001.96  E(vib)   ...       0.02
freq.    1003.49  E(vib)   ...       0.02
freq.    1003.56  E(vib)   ...       0.02
freq.    1006.20  E(vib)   ...       0.02
freq.    1006.38  E(vib)   ...       0.02
freq.    1006.57  E(vib)   ...       0.02
freq.    1007.06  E(vib)   ...       0.02
freq.    1007.21  E(vib)   ...       0.02
freq.    1007.49  E(vib)   ...       0.02
freq.    1355.11  E(vib)   ...       0.01
freq.    1355.53  E(vib)   ...       0.01
freq.    1356.21  E(vib)   ...       0.01
freq.    1356.34  E(vib)   ...       0.01
freq.    1356.56  E(vib)   ...       0.01
freq.    1356.83  E(vib)   ...       0.01
freq.    1358.03  E(vib)   ...       0.01
freq.    1358.74  E(vib)   ...       0.01
freq.    1358.86  E(vib)   ...       0.01
freq.    1359.42  E(vib)   ...       0.01
freq.    1359.62  E(vib)   ...       0.01
freq.    1360.02  E(vib)   ...       0.01
freq.    1369.92  E(vib)   ...       0.01
freq.    1369.98  E(vib)   ...       0.01
freq.    1370.08  E(vib)   ...       0.01
freq.    1370.13  E(vib)   ...       0.01

Rotational constants in cm-1:     0.001904     0.001904     0.001811

                             ****ORCA TERMINATED NORMALLY****
TOTAL RUN TIME: 0 days 1 hours 4 minutes 42 seconds 352 msec
