                         Program Version 6.1.0  -  RELEASE   -
|  1> # Geometry optimization for (AlH3)n cluster
|  2>
|  3> %pal nprocs 24  end
|  4>
|  5> %geom MaxIter 500 end
|  6>
|  7> %elprop Polar 1 end # invoke raman
|  8>
|  9> ! PBEh-3c
| 10> ! RKS	# closed shell for AlH3
| 11> ! Freq 	# Frequency analysis to check the stabiltity of the structures
| 12>
| 13>
| 14> ! NoPop # population analysis not necessary
| 15>
| 16> ! DEFGRID3
| 17> ! ExtremeSCF
| 18> ! VeryTightOpt
| 19>
| 20>
| 21> ! SmallPrint
| 22>
| 23>
| 24> * xyzFile 0 1 start.xyz # only maingroup elements H and Al so there should be no net spin
| 25>
| 26>                          ****END OF INPUT****
 Total Charge           Charge          ....    0
 Multiplicity           Mult            ....    1
 Number of Electrons    NEL             ....   48
Dispersion correction           -0.004353918
FINAL SINGLE POINT ENERGY      -731.686624668393
Dispersion correction             ... done (  0.1 sec)
Dispersion correction           -0.004366475
FINAL SINGLE POINT ENERGY      -731.687067847325
Dispersion correction             ... done (  0.1 sec)
Dispersion correction           -0.004396501
FINAL SINGLE POINT ENERGY      -731.687527898367
Dispersion correction             ... done (  0.1 sec)
FINAL SINGLE POINT ENERGY      -731.687557686334
FINAL SINGLE POINT ENERGY      -731.687644573665
FINAL SINGLE POINT ENERGY      -731.687656630711
FINAL SINGLE POINT ENERGY      -731.687692697949
FINAL SINGLE POINT ENERGY      -731.687699180950
FINAL SINGLE POINT ENERGY      -731.687705027857
FINAL SINGLE POINT ENERGY      -731.687713853221
FINAL SINGLE POINT ENERGY      -731.687750212853
FINAL SINGLE POINT ENERGY      -731.687750816004
FINAL SINGLE POINT ENERGY      -731.687751469705
FINAL SINGLE POINT ENERGY      -731.687751888811
FINAL SINGLE POINT ENERGY      -731.687752031498
FINAL SINGLE POINT ENERGY      -731.687752059028
FINAL SINGLE POINT ENERGY      -731.687752072991
Dispersion correction             ... done (  0.1 sec)
Dispersion correction           -0.004345140
FINAL SINGLE POINT ENERGY      -731.687752089604
Dispersion correction             ... done (  0.1 sec)
Dispersion correction           -0.004345168
FINAL SINGLE POINT ENERGY      -731.687752101553
Dispersion correction             ... done (  0.1 sec)
                    ***********************HURRAY********************

CARTESIAN COORDINATES (ANGSTROEM)
---------------------------------
  Al    -0.242177    1.529542    2.572819
  Al    -0.000080   -0.000607   -0.097096
  H      0.775640   -0.983033    1.050512
  H     -1.153866   -0.827491   -0.769031
  H     -0.763520    0.990644    1.051101
  H     -1.511865    2.138483    3.268161
  H      0.002642    0.000333    3.254201
  H      1.146014    0.821114   -0.788206
  Al     0.268674   -1.526665    2.575531
  H      1.550337   -2.115456    3.266238
  H     -1.151903   -2.176571    2.398582
  H      1.187046    2.158018    2.387548

 Multiplicity           Mult            ....    1
 Number of Electrons    NEL             ....   48
 Basis Dimension        Dim             ....   72

ORBITAL ENERGIES
----------------

  NO   OCC          E(Eh)            E(eV)
   0   2.0000     -56.621168     -1540.7403
   1   2.0000     -56.621128     -1540.7392
   2   2.0000     -56.620432     -1540.7203
   3   2.0000      -4.363311      -118.7317
   4   2.0000      -4.363296      -118.7313
   5   2.0000      -4.362511      -118.7099
   6   2.0000      -2.854144       -77.6652
   7   2.0000      -2.854087       -77.6637
   8   2.0000      -2.853438       -77.6460
   9   2.0000      -2.852592       -77.6230
  10   2.0000      -2.852540       -77.6216
  11   2.0000      -2.851671       -77.5979
  12   2.0000      -2.847906       -77.4955
  13   2.0000      -2.847888       -77.4950
  14   2.0000      -2.847046       -77.4721
  15   2.0000      -0.601015       -16.3544
  16   2.0000      -0.497875       -13.5479
  17   2.0000      -0.495947       -13.4954
  18   2.0000      -0.399226       -10.8635
  19   2.0000      -0.394793       -10.7429
  20   2.0000      -0.382963       -10.4210
  21   2.0000      -0.374817       -10.1993
  22   2.0000      -0.361654        -9.8411
  23   2.0000      -0.356516        -9.7013
  24   0.0000      -0.008338        -0.2269
  25   0.0000      -0.002680        -0.0729
  26   0.0000      -0.001973        -0.0537
  27   0.0000       0.020881         0.5682
  28   0.0000       0.045137         1.2282

-------
TIMINGS
-------

Dispersion correction           -0.004345276
FINAL SINGLE POINT ENERGY      -731.687752108627

DIPOLE MOMENT
-------------

Method             : SCF
Type of density    : Electron Density
Multiplicity       :   1
Irrep              :   0
Energy             :  -731.7033681064684743 Eh
Basis              : AO
                                X                 Y                 Z
Electronic contribution:     -0.003416565       0.001712779       0.086763634
Nuclear contribution   :      0.001113126      -0.000674047      -0.030290224
                        -----------------------------------------
Total Dipole Moment    :     -0.002303439       0.001038732       0.056473410
                        -----------------------------------------
Magnitude (a.u.)       :      0.056529911
Magnitude (Debye)      :      0.143687615

VIBRATIONAL FREQUENCIES
-----------------------

Scaling factor for frequencies =  1.000000000  (already applied!)

     0:       0.00 cm**-1
     1:       0.00 cm**-1
     2:       0.00 cm**-1
     3:       0.00 cm**-1
     4:       0.00 cm**-1
     5:       0.00 cm**-1
     6:     -44.28 cm**-1  ***imaginary mode***
     7:     115.78 cm**-1
     8:     144.92 cm**-1
     9:     236.66 cm**-1
    10:     306.99 cm**-1
    11:     326.22 cm**-1
    12:     431.53 cm**-1
    13:     445.98 cm**-1
    14:     453.81 cm**-1
    15:     515.16 cm**-1
    16:     547.71 cm**-1
    17:     604.88 cm**-1
    18:     709.59 cm**-1
    19:     710.28 cm**-1
    20:     753.94 cm**-1
    21:     785.95 cm**-1
    22:     812.07 cm**-1
    23:     818.11 cm**-1
    24:    1056.87 cm**-1
    25:    1071.82 cm**-1
    26:    1139.33 cm**-1
    27:    1816.95 cm**-1
    28:    1894.61 cm**-1
    29:    1914.75 cm**-1
    30:    2015.11 cm**-1
    31:    2019.65 cm**-1
    32:    2020.23 cm**-1
    33:    2029.60 cm**-1
    34:    2029.66 cm**-1
    35:    2036.08 cm**-1

IR SPECTRUM
-----------

 Mode   freq       eps      Int      T**2         TX        TY        TZ
       cm**-1   L/(mol*cm) km/mol    a.u.
----------------------------------------------------------------------------
  7:    115.78   0.000245    1.24  0.000661  (-0.001344  0.000157  0.025680)
  8:    144.92   0.000139    0.70  0.000299  ( 0.016062  0.006437  0.000208)
  9:    236.66   0.000547    2.76  0.000721  (-0.000096  0.000194 -0.026859)
 10:    306.99   0.002173   10.98  0.002208  ( 0.041279 -0.022449 -0.000729)
 11:    326.22   0.000067    0.34  0.000064  (-0.000434  0.000166  0.008018)
 12:    431.53   0.000751    3.79  0.000543  (-0.018536  0.014118 -0.000179)
 13:    445.98   0.000075    0.38  0.000053  (-0.000172  0.000119  0.007260)
 14:    453.81   0.001999   10.10  0.001375  (-0.000162  0.000459 -0.037077)
 15:    515.16   0.000027    0.13  0.000016  (-0.003892  0.000938  0.000380)
 16:    547.71   0.014329   72.41  0.008164  (-0.068359  0.059081  0.000595)
 17:    604.88   0.029606  149.61  0.015274  (-0.000533 -0.000500  0.123585)
 18:    709.59   0.139223  703.58  0.061227  ( 0.007565  0.247191 -0.008181)
 19:    710.28   0.108898  550.33  0.047845  ( 0.002392  0.009200  0.218528)
 20:    753.94   0.000344    1.74  0.000142  ( 0.000203  0.000168  0.011927)
 21:    785.95   0.040471  204.53  0.016069  (-0.080540  0.097802 -0.004180)
 22:    812.07   0.039626  200.26  0.015228  ( 0.001174  0.009919  0.122996)
 23:    818.11   0.050166  253.52  0.019135  (-0.057248 -0.125810  0.005463)
 24:   1056.87   0.049524  250.28  0.014623  (-0.006151  0.001259  0.120763)
 25:   1071.82   0.060648  306.49  0.017658  ( 0.123187 -0.049610  0.004657)
 26:   1139.33   0.000031    0.16  0.000009  (-0.002181  0.000945  0.001704)
 27:   1816.95   0.004779   24.15  0.000821  ( 0.004647 -0.028256 -0.000895)
 28:   1894.61   0.250249  1264.66  0.041219  ( 0.000967  0.001308  0.203018)
 29:   1914.75   0.255157  1289.46  0.041585  ( 0.026714 -0.202161  0.001569)
 30:   2015.11   0.001989   10.05  0.000308  ( 0.001400 -0.000872 -0.017475)
 31:   2019.65   0.008059   40.72  0.001245  (-0.030405  0.017906 -0.000292)
 32:   2020.23   0.000032    0.16  0.000005  ( 0.001616 -0.001296  0.000843)
 33:   2029.60   0.007056   35.66  0.001085  ( 0.006934 -0.006745 -0.031485)
 34:   2029.66   0.009848   49.77  0.001514  ( 0.027547 -0.026370  0.007738)
 35:   2036.08   0.086838  438.84  0.013309  (-0.110000 -0.034774  0.000307)

--------------------------
THERMOCHEMISTRY AT 298.15K
--------------------------

Temperature         ...   298.15 K
Pressure            ...     1.00 atm
Total Mass          ...    90.02 AMU
Quasi RRHO          ...     True
Cut-Off Frequency   ...     1.00 cm^-1

Throughout the following assumptions are being made:
  (1) The electronic state is orbitally nondegenerate
  (2) There are no thermally accessible electronically excited states
  (3) Hindered rotations indicated by low frequency modes are not
      treated as such but are treated as vibrations and this may
      cause some error
  (4) All equations used are the standard statistical mechanics
      equations for an ideal gas
  (5) All vibrations are strictly harmonic

freq.     115.78  E(vib)   ...       0.44
freq.     144.92  E(vib)   ...       0.41
freq.     236.66  E(vib)   ...       0.32
freq.     306.99  E(vib)   ...       0.26
freq.     326.22  E(vib)   ...       0.24
freq.     431.53  E(vib)   ...       0.18
freq.     445.98  E(vib)   ...       0.17
freq.     453.81  E(vib)   ...       0.16
freq.     515.16  E(vib)   ...       0.13
freq.     547.71  E(vib)   ...       0.12
freq.     604.88  E(vib)   ...       0.10
freq.     709.59  E(vib)   ...       0.07
freq.     710.28  E(vib)   ...       0.07
freq.     753.94  E(vib)   ...       0.06
freq.     785.95  E(vib)   ...       0.05
freq.     812.07  E(vib)   ...       0.05
freq.     818.11  E(vib)   ...       0.05
freq.    1056.87  E(vib)   ...       0.02
freq.    1071.82  E(vib)   ...       0.02
freq.    1139.33  E(vib)   ...       0.01
freq.    1816.95  E(vib)   ...       0.00
freq.    1894.61  E(vib)   ...       0.00
freq.    1914.75  E(vib)   ...       0.00
freq.    2015.11  E(vib)   ...       0.00
freq.    2019.65  E(vib)   ...       0.00
freq.    2020.23  E(vib)   ...       0.00
freq.    2029.60  E(vib)   ...       0.00
freq.    2029.66  E(vib)   ...       0.00
freq.    2036.08  E(vib)   ...       0.00

------------
INNER ENERGY
------------

The inner energy is: U= E(el) + E(ZPE) + E(vib) + E(rot) + E(trans)
    E(el)   - is the total energy from the electronic structure calculation
              = E(kin-el) + E(nuc-el) + E(el-el) + E(nuc-nuc)
    E(ZPE)  - the the zero temperature vibrational energy from the frequency calculation
    E(vib)  - the the finite temperature correction to E(ZPE) due to population
              of excited vibrational states
    E(rot)  - is the rotational thermal energy
    E(trans)- is the translational thermal energy

Summary of contributions to the inner energy U:
Electronic energy                ...   -731.68775211 Eh
Zero point energy                ...      0.06780791 Eh      42.55 kcal/mol
Thermal vibrational correction   ...      0.00465808 Eh       2.92 kcal/mol
Thermal rotational correction    ...      0.00141627 Eh       0.89 kcal/mol
Thermal translational correction ...      0.00141627 Eh       0.89 kcal/mol
-----------------------------------------------------------------------
Total thermal energy                   -731.61245358 Eh

Summary of corrections to the electronic energy:
(perhaps to be used in another calculation)
Total thermal correction                  0.00749062 Eh       4.70 kcal/mol
Non-thermal (ZPE) correction              0.06780791 Eh      42.55 kcal/mol
-----------------------------------------------------------------------
Total correction                          0.07529853 Eh      47.25 kcal/mol

--------
ENTHALPY
--------

The enthalpy is H = U + kB*T
                kB is Boltzmann's constant
Total thermal energy              ...   -731.61245358 Eh
Thermal Enthalpy correction       ...      0.00094421 Eh       0.59 kcal/mol
-----------------------------------------------------------------------
Total Enthalpy                    ...   -731.61150937 Eh

Note: Only C1 symmetry has been detected, increase convergence thresholds
      if your molecule has a higher symmetry. Symmetry factor of 1.0 is
      used for the rotational entropy correction.

Note: Rotational entropy computed according to Herzberg
Infrared and Raman Spectra, Chapter V,1, Van Nostrand Reinhold, 1945
Point Group:  C1, Symmetry Number:   1
Rotational constants in cm-1:     0.104567     0.103542     0.055918

Vibrational entropy computed according to the QRRHO of S. Grimme
Chem.Eur.J. 2012 18 9955 using a reference frequency of 100.0 cm-1

-------
ENTROPY
-------

The entropy contributions are T*S = T*(S(el)+S(vib)+S(rot)+S(trans))
     S(el)   - electronic entropy
     S(vib)  - vibrational entropy
     S(rot)  - rotational entropy
     S(trans)- translational entropy
The entropies will be listed as multiplied by the temperature to get
units of energy

Electronic entropy                ...      0.00000000 Eh      0.00 kcal/mol
Vibrational entropy               ...      0.00756343 Eh      4.75 kcal/mol
Rotational entropy                ...      0.01300880 Eh      8.16 kcal/mol
Translational entropy             ...      0.01872231 Eh     11.75 kcal/mol
-----------------------------------------------------------------------
Final entropy term                ...      0.03929453 Eh     24.66 kcal/mol

In case the symmetry of your molecule has not been determined correctly
or in case you have a reason to use a different symmetry number we print
out the resulting rotational entropy values for sn=1,12:

 non-linear molecules -----------------------------------
|  sn= 1 | S(rot)=       0.01300880 Eh      8.16 kcal/mol|
|  sn= 2 | S(rot)=       0.01235434 Eh      7.75 kcal/mol|
|  sn= 3 | S(rot)=       0.01197151 Eh      7.51 kcal/mol|
|  sn= 4 | S(rot)=       0.01169988 Eh      7.34 kcal/mol|
|  sn= 5 | S(rot)=       0.01148920 Eh      7.21 kcal/mol|
|  sn= 6 | S(rot)=       0.01131705 Eh      7.10 kcal/mol|
|  sn= 7 | S(rot)=       0.01117151 Eh      7.01 kcal/mol|
|  sn= 8 | S(rot)=       0.01104543 Eh      6.93 kcal/mol|
|  sn= 9 | S(rot)=       0.01093422 Eh      6.86 kcal/mol|
|  sn=10 | S(rot)=       0.01083474 Eh      6.80 kcal/mol|
|  sn=11 | S(rot)=       0.01074475 Eh      6.74 kcal/mol|
|  sn=12 | S(rot)=       0.01066260 Eh      6.69 kcal/mol|
 linear molecules ---------------------------------------
|  Dinfh | S(rot)=       0.00804869 Eh      5.05 kcal/mol|
|  Cinfv | S(rot)=       0.00870315 Eh      5.46 kcal/mol|
 --------------------------------------------------------

-------------------
GIBBS FREE ENERGY
-------------------

The Gibbs free energy is G = H - T*S

Total enthalpy                    ...   -731.61150937 Eh
Total entropy correction          ...     -0.03929453 Eh    -24.66 kcal/mol
-----------------------------------------------------------------------
Final Gibbs free energy         ...   -731.65080390 Eh

For completeness - the Gibbs free energy minus the electronic energy
G-E(el)                           ...      0.03694821 Eh     23.19 kcal/mol

                             ****ORCA TERMINATED NORMALLY****
TOTAL RUN TIME: 0 days 0 hours 7 minutes 56 seconds 826 msec
