                         Program Version 6.1.0  -  RELEASE   -
|  1> # Geometry optimization for (AlH3)n cluster
|  2>
|  3> %pal nprocs 24  end
|  4>
|  5> %geom MaxIter 500 end
|  6>
|  7>
|  8> ! PBE def2-SV(P)
|  9> ! RKS	# closed shell for AlH3
| 10> ! D3    #  dispersion correction
| 11> ! Freq 	# Frequency analysis to check the stabiltity of the structures
| 12>
| 13> ! NoPop # population analysis not necessary
| 14>
| 15> ! RI
| 16> ! DEFGRID2
| 17> ! NormalSCF
| 18> ! SloppyOpt
| 19>
| 20> ! SmallPrint
| 21>
| 22>
| 23> * xyzFile 0 1 start.xyz # only maingroup elements H and Al so there should be no net spin
| 24>
| 25>                          ****END OF INPUT****
 Total Charge           Charge          ....    0
 Multiplicity           Mult            ....    1
 Number of Electrons    NEL             ....   96
Dispersion correction           -0.024544920
FINAL SINGLE POINT ENERGY     -1463.564589527448
Dispersion correction             ... done (  0.1 sec)
Dispersion correction           -0.024408993
FINAL SINGLE POINT ENERGY     -1463.624127110228
Dispersion correction             ... done (  0.1 sec)
Dispersion correction           -0.024332537
FINAL SINGLE POINT ENERGY     -1463.677411020822
Dispersion correction             ... done (  0.1 sec)
FINAL SINGLE POINT ENERGY     -1463.740794477345
FINAL SINGLE POINT ENERGY     -1463.810503645043
FINAL SINGLE POINT ENERGY     -1463.858921917579
FINAL SINGLE POINT ENERGY     -1463.893717455091
FINAL SINGLE POINT ENERGY     -1463.920470032124
FINAL SINGLE POINT ENERGY     -1463.942050122167
FINAL SINGLE POINT ENERGY     -1463.958597725567
FINAL SINGLE POINT ENERGY     -1463.980556608418
FINAL SINGLE POINT ENERGY     -1463.982123859930
FINAL SINGLE POINT ENERGY     -1463.983005200003
FINAL SINGLE POINT ENERGY     -1463.983734824055
FINAL SINGLE POINT ENERGY     -1463.984302430407
FINAL SINGLE POINT ENERGY     -1463.984707153645
FINAL SINGLE POINT ENERGY     -1463.984946319413
Dispersion correction             ... done (  0.1 sec)
Dispersion correction           -0.023872804
FINAL SINGLE POINT ENERGY     -1463.985118400862
Dispersion correction             ... done (  0.1 sec)
Dispersion correction           -0.023900801
FINAL SINGLE POINT ENERGY     -1463.985278445021
Dispersion correction             ... done (  0.1 sec)
                    ***********************HURRAY********************

CARTESIAN COORDINATES (ANGSTROEM)
---------------------------------
  Al    -0.177139    1.220256    3.065223
  Al     0.617820   -0.141603    0.202655
  H      1.018593   -1.700005    0.768105
  H     -0.917350   -0.192648   -0.237230
  H      0.701767    0.655480    1.712507
  H     -1.528254    1.891060    2.534276
  H     -0.620562   -0.318114    3.676628
  H      1.882546    0.383377   -0.618995
  Al     0.847330   -3.230528    1.514121
  H     -0.018107   -2.655366    2.865362
  H     -0.214018   -4.047091    0.639179
  H      0.900772    1.858782    4.058503
  Al     0.489763   -1.582697    4.146555
  H     -1.008358   -2.253737    4.860269
  H      1.877399   -1.004527    3.576061
  H      2.291868   -3.708865    1.980161
  Al    -1.706351   -2.974828    6.208603
  H     -2.001923   -4.509734    5.887071
  H     -2.611186   -1.920625    6.995419
  Al     1.255925   -2.367219    6.558119
  H      2.473217   -2.427779    7.573683
  H      0.709085   -0.913139    5.929197
  H      1.349160   -3.050097    5.038702
  H     -0.195638   -3.014973    7.132655

 Multiplicity           Mult            ....    1
 Number of Electrons    NEL             ....   96
 Basis Dimension        Dim             ....  144

ORBITAL ENERGIES
----------------

  NO   OCC          E(Eh)            E(eV)
   0   2.0000     -55.425356     -1508.2006
   1   2.0000     -55.413542     -1507.8791
   2   2.0000     -55.396532     -1507.4163
   3   2.0000     -55.388328     -1507.1930
   4   2.0000     -55.384910     -1507.1000
   5   2.0000     -55.384576     -1507.0909
   6   2.0000      -3.973601      -108.1272
   7   2.0000      -3.971247      -108.0631
   8   2.0000      -3.953692      -107.5854
   9   2.0000      -3.943985      -107.3213
  10   2.0000      -3.941126      -107.2435
  11   2.0000      -3.940971      -107.2393
  12   2.0000      -2.580878       -70.2293
  13   2.0000      -2.580650       -70.2231
  14   2.0000      -2.578522       -70.1651
  15   2.0000      -2.578161       -70.1553
  16   2.0000      -2.576042       -70.0977
  17   2.0000      -2.573136       -70.0186
  18   2.0000      -2.563023       -69.7434
  19   2.0000      -2.559698       -69.6529
  20   2.0000      -2.554427       -69.5095
  21   2.0000      -2.552687       -69.4621
  22   2.0000      -2.550680       -69.4075
  23   2.0000      -2.549895       -69.3862
  24   2.0000      -2.549662       -69.3798
  25   2.0000      -2.547518       -69.3215
  26   2.0000      -2.547424       -69.3189
  27   2.0000      -2.544744       -69.2460
  28   2.0000      -2.542109       -69.1743
  29   2.0000      -2.541968       -69.1705
  30   2.0000      -0.513067       -13.9613
  31   2.0000      -0.462800       -12.5934
  32   2.0000      -0.422303       -11.4915
  33   2.0000      -0.417736       -11.3672
  34   2.0000      -0.405227       -11.0268
  35   2.0000      -0.363057        -9.8793
  36   2.0000      -0.345110        -9.3909
  37   2.0000      -0.324423        -8.8280
  38   2.0000      -0.317099        -8.6287
  39   2.0000      -0.313420        -8.5286
  40   2.0000      -0.311106        -8.4656
  41   2.0000      -0.291934        -7.9439
  42   2.0000      -0.288724        -7.8566
  43   2.0000      -0.282743        -7.6938
  44   2.0000      -0.279065        -7.5937
  45   2.0000      -0.270647        -7.3647
  46   2.0000      -0.267521        -7.2796
  47   2.0000      -0.252767        -6.8781
  48   0.0000      -0.089905        -2.4464
  49   0.0000      -0.064888        -1.7657
  50   0.0000      -0.059093        -1.6080
  51   0.0000      -0.057406        -1.5621
  52   0.0000      -0.043082        -1.1723

-------
TIMINGS
-------

Dispersion correction           -0.023935219
FINAL SINGLE POINT ENERGY     -1463.985402989119

DIPOLE MOMENT
-------------

Method             : SCF
Type of density    : Electron Density
Multiplicity       :   1
Irrep              :   0
Energy             : -1463.9614677704271344 Eh
Basis              : AO
                                X                 Y                 Z
Electronic contribution:     -0.080420400      -0.661625604       1.635029348
Nuclear contribution   :      0.093488266       0.263828560      -0.624282479
                        -----------------------------------------
Total Dipole Moment    :      0.013067867      -0.397797044       1.010746868
                        -----------------------------------------
Magnitude (a.u.)       :      1.086288400
Magnitude (Debye)      :      2.761125683

VIBRATIONAL FREQUENCIES
-----------------------

Scaling factor for frequencies =  1.000000000  (already applied!)

     0:       0.00 cm**-1
     1:       0.00 cm**-1
     2:       0.00 cm**-1
     3:       0.00 cm**-1
     4:       0.00 cm**-1
     5:       0.00 cm**-1
     6:     -70.42 cm**-1  ***imaginary mode***
     7:     -38.15 cm**-1  ***imaginary mode***
     8:      15.25 cm**-1
     9:      46.32 cm**-1
    10:      60.94 cm**-1
    11:      98.78 cm**-1
    12:     103.83 cm**-1
    13:     126.79 cm**-1
    14:     162.15 cm**-1
    15:     200.23 cm**-1
    16:     209.39 cm**-1
    17:     215.71 cm**-1
    18:     253.60 cm**-1
    19:     279.54 cm**-1
    20:     296.74 cm**-1
    21:     311.36 cm**-1
    22:     338.82 cm**-1
    23:     366.86 cm**-1
    24:     377.65 cm**-1
    25:     394.17 cm**-1
    26:     407.44 cm**-1
    27:     439.62 cm**-1
    28:     455.65 cm**-1
    29:     490.38 cm**-1
    30:     496.07 cm**-1
    31:     544.17 cm**-1
    32:     557.99 cm**-1
    33:     585.82 cm**-1
    34:     647.73 cm**-1
    35:     653.57 cm**-1
    36:     669.05 cm**-1
    37:     676.02 cm**-1
    38:     681.09 cm**-1
    39:     695.02 cm**-1
    40:     715.25 cm**-1
    41:     720.44 cm**-1
    42:     734.05 cm**-1
    43:     763.70 cm**-1
    44:     787.71 cm**-1
    45:     825.24 cm**-1
    46:     828.52 cm**-1
    47:     897.02 cm**-1
    48:     910.10 cm**-1
    49:     978.64 cm**-1
    50:    1072.92 cm**-1
    51:    1104.64 cm**-1
    52:    1125.52 cm**-1
    53:    1135.67 cm**-1
    54:    1612.22 cm**-1
    55:    1665.10 cm**-1
    56:    1689.23 cm**-1
    57:    1714.23 cm**-1
    58:    1751.52 cm**-1
    59:    1858.91 cm**-1
    60:    1880.32 cm**-1
    61:    1896.02 cm**-1
    62:    1906.83 cm**-1
    63:    1912.37 cm**-1
    64:    1921.80 cm**-1
    65:    1923.07 cm**-1
    66:    1930.89 cm**-1
    67:    1933.71 cm**-1
    68:    1939.21 cm**-1
    69:    1948.18 cm**-1
    70:    1965.46 cm**-1
    71:    1994.44 cm**-1

IR SPECTRUM
-----------

 Mode   freq       eps      Int      T**2         TX        TY        TZ
       cm**-1   L/(mol*cm) km/mol    a.u.
----------------------------------------------------------------------------
  8:     15.25   0.000052    0.26  0.001068  (-0.006505  0.029080  0.013433)
  9:     46.32   0.000113    0.57  0.000761  ( 0.019180  0.019461  0.003804)
 10:     60.94   0.000025    0.13  0.000130  ( 0.006723 -0.003319  0.008607)
 11:     98.78   0.000054    0.27  0.000169  ( 0.002427  0.009991  0.007975)
 12:    103.83   0.000015    0.08  0.000046  ( 0.001570 -0.006215 -0.002277)
 13:    126.79   0.000692    3.50  0.001704  ( 0.009924 -0.037534 -0.014038)
 14:    162.15   0.000290    1.47  0.000558  ( 0.017286 -0.006899  0.014545)
 15:    200.23   0.000248    1.26  0.000387  (-0.006599  0.006081  0.017511)
 16:    209.39   0.000186    0.94  0.000278  (-0.009629  0.002082 -0.013439)
 17:    215.71   0.001834    9.27  0.002654  (-0.013699  0.016174 -0.046954)
 18:    253.60   0.002063   10.42  0.002538  ( 0.003085  0.019526 -0.046338)
 19:    279.54   0.000351    1.77  0.000392  ( 0.000408 -0.018368 -0.007370)
 20:    296.74   0.001304    6.59  0.001371  ( 0.027239 -0.001355 -0.025045)
 21:    311.36   0.000892    4.51  0.000894  ( 0.009736 -0.009710  0.026547)
 22:    338.82   0.000875    4.42  0.000806  (-0.026537 -0.010091 -0.000267)
 23:    366.86   0.000037    0.19  0.000032  (-0.005389 -0.001233 -0.001010)
 24:    377.65   0.008674   43.84  0.007168  (-0.044420 -0.035434  0.062763)
 25:    394.17   0.000369    1.86  0.000292  (-0.007688 -0.011745  0.009741)
 26:    407.44   0.000555    2.81  0.000425  ( 0.015274  0.005161 -0.012859)
 27:    439.62   0.002097   10.60  0.001489  ( 0.010659 -0.008727  0.036039)
 28:    455.65   0.000306    1.55  0.000209  ( 0.002531  0.013794 -0.003567)
 29:    490.38   0.008213   41.51  0.005227  ( 0.032107  0.010500 -0.063919)
 30:    496.07   0.011911   60.19  0.007493  (-0.038532 -0.040511  0.066084)
 31:    544.17   0.009361   47.31  0.005368  (-0.020141 -0.029465  0.063986)
 32:    557.99   0.012519   63.27  0.007001  ( 0.019355 -0.072832 -0.036362)
 33:    585.82   0.052873  267.20  0.028165  ( 0.048177  0.075065 -0.142160)
 34:    647.73   0.000725    3.67  0.000349  ( 0.003500  0.017401  0.005870)
 35:    653.57   0.114178  577.01  0.054517  (-0.038593  0.221214  0.063967)
 36:    669.05   0.118008  596.36  0.055042  ( 0.052898  0.099807 -0.205628)
 37:    676.02   0.078567  397.04  0.036268  ( 0.144357  0.034360 -0.119368)
 38:    681.09   0.098780  499.19  0.045260  (-0.013008  0.199635  0.072362)
 39:    695.02   0.046924  237.13  0.021069  ( 0.093104 -0.052473  0.098219)
 40:    715.25   0.124408  628.71  0.054279  ( 0.009590 -0.086430  0.216141)
 41:    720.44   0.023232  117.41  0.010063  ( 0.015831 -0.063310 -0.076187)
 42:    734.05   0.015762   79.65  0.006701  (-0.001434 -0.075960 -0.030474)
 43:    763.70   0.016574   83.76  0.006772  (-0.079149  0.013706 -0.017887)
 44:    787.71   0.008473   42.82  0.003357  ( 0.001796  0.015392  0.055825)
 45:    825.24   0.041152  207.96  0.015561  (-0.076843 -0.061355 -0.076760)
 46:    828.52   0.053421  269.97  0.020121  (-0.117994  0.068920 -0.038061)
 47:    897.02   0.018579   93.89  0.006464  (-0.075858 -0.014352 -0.022431)
 48:    910.10   0.042674  215.65  0.014632  (-0.014685  0.024145 -0.117616)
 49:    978.64   0.022013  111.24  0.007019  (-0.021391  0.078890  0.018390)
 50:   1072.92   0.022336  112.88  0.006496  ( 0.066535  0.039203  0.023078)
 51:   1104.64   0.007441   37.60  0.002102  (-0.043611  0.004844 -0.013288)
 52:   1125.52   0.038695  195.55  0.010729  (-0.090025  0.014950 -0.048994)
 53:   1135.67   0.087468  442.03  0.024035  (-0.007055 -0.055241  0.144684)
 54:   1612.22   0.022436  113.38  0.004343  (-0.017229  0.061439  0.016465)
 55:   1665.10   0.122268  617.89  0.022915  ( 0.000351  0.101873 -0.111967)
 56:   1689.23   0.176223  890.56  0.032555  ( 0.028875  0.115634 -0.135462)
 57:   1714.23   0.177392  896.46  0.032293  ( 0.036466 -0.041455 -0.171010)
 58:   1751.52   0.124293  628.13  0.022145  ( 0.143337  0.030843 -0.025462)
 59:   1858.91   0.069372  350.58  0.011646  ( 0.082998  0.037912 -0.057619)
 60:   1880.32   0.172478  871.64  0.028625  (-0.042949  0.113279  0.118103)
 61:   1896.02   0.082076  414.78  0.013509  ( 0.011950  0.111347 -0.031111)
 62:   1906.83   0.033787  170.74  0.005529  ( 0.065377  0.014881  0.032153)
 63:   1912.37   0.006226   31.46  0.001016  (-0.005519 -0.000896  0.031379)
 64:   1921.80   0.013793   69.70  0.002240  ( 0.016938  0.009534  0.043150)
 65:   1923.07   0.015642   79.05  0.002538  ( 0.042995  0.008643  0.024798)
 66:   1930.89   0.053356  269.64  0.008623  (-0.048560  0.076670  0.019673)
 67:   1933.71   0.037269  188.34  0.006014  (-0.075013 -0.016065  0.011378)
 68:   1939.21   0.048613  245.67  0.007823  ( 0.027460 -0.077526 -0.032535)
 69:   1948.18   0.041422  209.33  0.006635  (-0.056600 -0.017096 -0.056029)
 70:   1965.46   0.018893   95.48  0.003000  (-0.033106  0.012451 -0.041817)
 71:   1994.44   0.122657  619.86  0.019192  ( 0.006784  0.104001 -0.091266)

--------------------------
THERMOCHEMISTRY AT 298.15K
--------------------------

Temperature         ...   298.15 K
Pressure            ...     1.00 atm
Total Mass          ...   180.04 AMU
Quasi RRHO          ...     True
Cut-Off Frequency   ...     1.00 cm^-1

Throughout the following assumptions are being made:
  (1) The electronic state is orbitally nondegenerate
  (2) There are no thermally accessible electronically excited states
  (3) Hindered rotations indicated by low frequency modes are not
      treated as such but are treated as vibrations and this may
      cause some error
  (4) All equations used are the standard statistical mechanics
      equations for an ideal gas
  (5) All vibrations are strictly harmonic

freq.      15.25  E(vib)   ...       0.57
freq.      46.32  E(vib)   ...       0.53
freq.      60.94  E(vib)   ...       0.51
freq.      98.78  E(vib)   ...       0.46
freq.     103.83  E(vib)   ...       0.46
freq.     126.79  E(vib)   ...       0.43
freq.     162.15  E(vib)   ...       0.39
freq.     200.23  E(vib)   ...       0.35
freq.     209.39  E(vib)   ...       0.34
freq.     215.71  E(vib)   ...       0.34
freq.     253.60  E(vib)   ...       0.30
freq.     279.54  E(vib)   ...       0.28
freq.     296.74  E(vib)   ...       0.27
freq.     311.36  E(vib)   ...       0.25
freq.     338.82  E(vib)   ...       0.23
freq.     366.86  E(vib)   ...       0.22
freq.     377.65  E(vib)   ...       0.21
freq.     394.17  E(vib)   ...       0.20
freq.     407.44  E(vib)   ...       0.19
freq.     439.62  E(vib)   ...       0.17
freq.     455.65  E(vib)   ...       0.16
freq.     490.38  E(vib)   ...       0.15
freq.     496.07  E(vib)   ...       0.14
freq.     544.17  E(vib)   ...       0.12
freq.     557.99  E(vib)   ...       0.12
freq.     585.82  E(vib)   ...       0.11
freq.     647.73  E(vib)   ...       0.09
freq.     653.57  E(vib)   ...       0.08
freq.     669.05  E(vib)   ...       0.08
freq.     676.02  E(vib)   ...       0.08
freq.     681.09  E(vib)   ...       0.08
freq.     695.02  E(vib)   ...       0.07
freq.     715.25  E(vib)   ...       0.07
freq.     720.44  E(vib)   ...       0.07
freq.     734.05  E(vib)   ...       0.06
freq.     763.70  E(vib)   ...       0.06
freq.     787.71  E(vib)   ...       0.05
freq.     825.24  E(vib)   ...       0.04
freq.     828.52  E(vib)   ...       0.04
freq.     897.02  E(vib)   ...       0.03
freq.     910.10  E(vib)   ...       0.03
freq.     978.64  E(vib)   ...       0.03
freq.    1072.92  E(vib)   ...       0.02
freq.    1104.64  E(vib)   ...       0.02
freq.    1125.52  E(vib)   ...       0.01
freq.    1135.67  E(vib)   ...       0.01
freq.    1612.22  E(vib)   ...       0.00
freq.    1665.10  E(vib)   ...       0.00
freq.    1689.23  E(vib)   ...       0.00
freq.    1714.23  E(vib)   ...       0.00
freq.    1751.52  E(vib)   ...       0.00
freq.    1858.91  E(vib)   ...       0.00
freq.    1880.32  E(vib)   ...       0.00
freq.    1896.02  E(vib)   ...       0.00
freq.    1906.83  E(vib)   ...       0.00
freq.    1912.37  E(vib)   ...       0.00
freq.    1921.80  E(vib)   ...       0.00
freq.    1923.07  E(vib)   ...       0.00
freq.    1930.89  E(vib)   ...       0.00
freq.    1933.71  E(vib)   ...       0.00
freq.    1939.21  E(vib)   ...       0.00
freq.    1948.18  E(vib)   ...       0.00
freq.    1965.46  E(vib)   ...       0.00
freq.    1994.44  E(vib)   ...       0.00

------------
INNER ENERGY
------------

The inner energy is: U= E(el) + E(ZPE) + E(vib) + E(rot) + E(trans)
    E(el)   - is the total energy from the electronic structure calculation
              = E(kin-el) + E(nuc-el) + E(el-el) + E(nuc-nuc)
    E(ZPE)  - the the zero temperature vibrational energy from the frequency calculation
    E(vib)  - the the finite temperature correction to E(ZPE) due to population
              of excited vibrational states
    E(rot)  - is the rotational thermal energy
    E(trans)- is the translational thermal energy

Summary of contributions to the inner energy U:
Electronic energy                ...  -1463.98540299 Eh
Zero point energy                ...      0.13190739 Eh      82.77 kcal/mol
Thermal vibrational correction   ...      0.01358154 Eh       8.52 kcal/mol
Thermal rotational correction    ...      0.00141627 Eh       0.89 kcal/mol
Thermal translational correction ...      0.00141627 Eh       0.89 kcal/mol
-----------------------------------------------------------------------
Total thermal energy                  -1463.83708152 Eh

Summary of corrections to the electronic energy:
(perhaps to be used in another calculation)
Total thermal correction                  0.01641408 Eh      10.30 kcal/mol
Non-thermal (ZPE) correction              0.13190739 Eh      82.77 kcal/mol
-----------------------------------------------------------------------
Total correction                          0.14832147 Eh      93.07 kcal/mol

--------
ENTHALPY
--------

The enthalpy is H = U + kB*T
                kB is Boltzmann's constant
Total thermal energy              ...  -1463.83708152 Eh
Thermal Enthalpy correction       ...      0.00094421 Eh       0.59 kcal/mol
-----------------------------------------------------------------------
Total Enthalpy                    ...  -1463.83613731 Eh

Note: Only C1 symmetry has been detected, increase convergence thresholds
      if your molecule has a higher symmetry. Symmetry factor of 1.0 is
      used for the rotational entropy correction.

Note: Rotational entropy computed according to Herzberg
Infrared and Raman Spectra, Chapter V,1, Van Nostrand Reinhold, 1945
Point Group:  C1, Symmetry Number:   1
Rotational constants in cm-1:     0.031786     0.013264     0.011438

Vibrational entropy computed according to the QRRHO of S. Grimme
Chem.Eur.J. 2012 18 9955 using a reference frequency of 100.0 cm-1

-------
ENTROPY
-------

The entropy contributions are T*S = T*(S(el)+S(vib)+S(rot)+S(trans))
     S(el)   - electronic entropy
     S(vib)  - vibrational entropy
     S(rot)  - rotational entropy
     S(trans)- translational entropy
The entropies will be listed as multiplied by the temperature to get
units of energy

Electronic entropy                ...      0.00000000 Eh      0.00 kcal/mol
Vibrational entropy               ...      0.02376512 Eh     14.91 kcal/mol
Rotational entropy                ...      0.01529023 Eh      9.59 kcal/mol
Translational entropy             ...      0.01970399 Eh     12.36 kcal/mol
-----------------------------------------------------------------------
Final entropy term                ...      0.05875934 Eh     36.87 kcal/mol

In case the symmetry of your molecule has not been determined correctly

                             ****ORCA TERMINATED NORMALLY****
TOTAL RUN TIME: 0 days 0 hours 4 minutes 28 seconds 634 msec
