                         Program Version 5.0.4 -  RELEASE  -
|  1> # Geometry optimization for (AlH3)n cluster
|  2>
|  3> ! PBE 	# functional used for the MOF calculations later (non-expensive)
|  4> ! RKS	# closed shell for AlH3
|  5> ! D3BJ  # better geometries at low cost
|  6> ! pc-3 	# proven basiset from earlier work
|  7> ! Freq 	# Frequency analysis to check the stabiltity of the structures
|  8>
|  9> ! NoPop # population analysis not necessary
| 10>
| 11> ! RI 		# speed up calculation
| 12> ! AutoAux # no auxiliary basis set for pc implemented
| 13> ! DEFGRID3 # dense integration grid in space
| 14> ! TightSCF #
| 15> ! TightOpt # thight convergence criteria for geometry optimizations
| 16>
| 17> ! SmallPrint
| 18>
| 19>
| 20> * xyzFile 0 1 start.xyz # only maingroup elements H and Al so there should be no net spin
| 21>
| 22>                          ****END OF INPUT****
 Total Charge           Charge          ....    0
 Multiplicity           Mult            ....    1
 Number of Electrons    NEL             ....   48
Dispersion correction           -0.008593118
FINAL SINGLE POINT ENERGY      -732.269250959824
Dispersion correction            ... done
Dispersion correction           -0.008611799
FINAL SINGLE POINT ENERGY      -732.273218618796
Dispersion correction            ... done
Dispersion correction           -0.008647287
FINAL SINGLE POINT ENERGY      -732.278868849819
Dispersion correction            ... done
FINAL SINGLE POINT ENERGY      -732.282996231831
FINAL SINGLE POINT ENERGY      -732.285591000550
FINAL SINGLE POINT ENERGY      -732.286684458523
FINAL SINGLE POINT ENERGY      -732.286771219187
FINAL SINGLE POINT ENERGY      -732.286833269791
FINAL SINGLE POINT ENERGY      -732.286902350989
FINAL SINGLE POINT ENERGY      -732.286936611649
FINAL SINGLE POINT ENERGY      -732.288186219421
FINAL SINGLE POINT ENERGY      -732.288194080114
FINAL SINGLE POINT ENERGY      -732.288201819822
FINAL SINGLE POINT ENERGY      -732.288207528033
FINAL SINGLE POINT ENERGY      -732.288211836231
FINAL SINGLE POINT ENERGY      -732.288214867430
FINAL SINGLE POINT ENERGY      -732.288216333685
Dispersion correction           -0.009064908
FINAL SINGLE POINT ENERGY      -732.288216920468
Dispersion correction            ... done
Dispersion correction           -0.009065613
FINAL SINGLE POINT ENERGY      -732.288217273927
Dispersion correction            ... done
                    ***********************HURRAY********************

CARTESIAN COORDINATES (ANGSTROEM)
---------------------------------
  Al    -0.014762   -0.031464    3.407032
  H     -0.548810   -1.251350    2.325110
  H     -1.257904    0.464906    4.254015
  H      1.392833   -0.536664    3.931019
  Al     0.991049    1.182472    0.695564
  H      0.243339   -0.239863    0.094316
  H      0.374137    2.426318   -0.067050
  H      0.235577    1.198295    2.236290
  Al    -1.158123   -0.977980    0.747043
  H     -2.293618    0.125562    0.843434
  H      2.517777    0.798209    0.876641
  H     -1.220106   -2.411593    0.075125

 Multiplicity           Mult            ....    1
 Number of Electrons    NEL             ....   48
 Basis Dimension        Dim             ....  498

ORBITAL ENERGIES
----------------

  NO   OCC          E(Eh)            E(eV)
   0   2.0000     -55.366949     -1506.6113
   1   2.0000     -55.366232     -1506.5918
   2   2.0000     -55.366216     -1506.5913
   3   2.0000      -3.940259      -107.2199
   4   2.0000      -3.939348      -107.1951
   5   2.0000      -3.939329      -107.1946
   6   2.0000      -2.544181       -69.2307
   7   2.0000      -2.543436       -69.2104
   8   2.0000      -2.543404       -69.2095
   9   2.0000      -2.542295       -69.1794
  10   2.0000      -2.541348       -69.1536
  11   2.0000      -2.541288       -69.1520
  12   2.0000      -2.537487       -69.0485
  13   2.0000      -2.536484       -69.0213
  14   2.0000      -2.536462       -69.0207
  15   2.0000      -0.483040       -13.1442
  16   2.0000      -0.397604       -10.8194
  17   2.0000      -0.393333       -10.7031
  18   2.0000      -0.313987        -8.5440
  19   2.0000      -0.307579        -8.3697
  20   2.0000      -0.296495        -8.0680
  21   2.0000      -0.288035        -7.8378
  22   2.0000      -0.274469        -7.4687
  23   2.0000      -0.272707        -7.4207
  24   0.0000      -0.061099        -1.6626
  25   0.0000      -0.057208        -1.5567
  26   0.0000      -0.050262        -1.3677
  27   0.0000      -0.046798        -1.2734
  28   0.0000      -0.026238        -0.7140

-------
TIMINGS
-------

Dispersion correction           -0.009066114
FINAL SINGLE POINT ENERGY      -732.288217611290

DIPOLE MOMENT
-------------
                                X             Y             Z
Electronic contribution:      0.01325      -0.14490      -0.06258
Nuclear contribution   :     -0.00985       0.04784       0.01747
                        -----------------------------------------
Total Dipole Moment    :      0.00341      -0.09706      -0.04512
                        -----------------------------------------
Magnitude (a.u.)       :      0.10709
Magnitude (Debye)      :      0.27220

Dispersion correction in the Hessian             ... done   (      5.3 sec)

VIBRATIONAL FREQUENCIES
-----------------------

Scaling factor for frequencies =  1.000000000  (already applied!)

   0:         0.00 cm**-1
   1:         0.00 cm**-1
   2:         0.00 cm**-1
   3:         0.00 cm**-1
   4:         0.00 cm**-1
   5:         0.00 cm**-1
   6:        48.56 cm**-1
   7:       104.88 cm**-1
   8:       149.50 cm**-1
   9:       226.40 cm**-1
  10:       285.20 cm**-1
  11:       325.60 cm**-1
  12:       414.26 cm**-1
  13:       417.04 cm**-1
  14:       429.86 cm**-1
  15:       486.24 cm**-1
  16:       515.24 cm**-1
  17:       543.59 cm**-1
  18:       674.08 cm**-1
  19:       675.96 cm**-1
  20:       709.04 cm**-1
  21:       722.80 cm**-1
  22:       729.67 cm**-1
  23:       752.26 cm**-1
  24:       998.08 cm**-1
  25:      1073.72 cm**-1
  26:      1105.80 cm**-1
  27:      1708.54 cm**-1
  28:      1763.65 cm**-1
  29:      1784.08 cm**-1
  30:      1902.27 cm**-1
  31:      1906.92 cm**-1
  32:      1908.00 cm**-1
  33:      1917.16 cm**-1
  34:      1919.16 cm**-1
  35:      1925.34 cm**-1

IR SPECTRUM
-----------

 Mode   freq       eps      Int      T**2         TX        TY        TZ
       cm**-1   L/(mol*cm) km/mol    a.u.
----------------------------------------------------------------------------
  6:     48.56   0.000295    1.49  0.001893  ( 0.010857  0.022812 -0.035429)
  7:    104.88   0.000361    1.82  0.001073  ( 0.012255 -0.028216 -0.011248)
  8:    149.50   0.000088    0.45  0.000185  ( 0.006442  0.009522  0.007247)
  9:    226.40   0.000375    1.90  0.000518  ( 0.006784  0.008099 -0.020147)
 10:    285.20   0.002101   10.62  0.002299  ( 0.001951  0.043639  0.019775)
 11:    325.60   0.000398    2.01  0.000382  (-0.003535  0.017831  0.007159)
 12:    414.26   0.000677    3.42  0.000510  (-0.010018 -0.019043 -0.006843)
 13:    417.04   0.000421    2.13  0.000315  (-0.002971 -0.003461  0.017153)
 14:    429.86   0.001138    5.75  0.000826  (-0.008537 -0.010457  0.025380)
 15:    486.24   0.000084    0.42  0.000054  (-0.002740 -0.002336  0.006387)
 16:    515.24   0.014902   75.31  0.009025  (-0.015919  0.089272  0.028330)
 17:    543.59   0.012625   63.80  0.007248  ( 0.027269  0.025027 -0.076668)
 18:    674.08   0.123036  621.77  0.056959  ( 0.179181  0.105505  0.117138)
 19:    675.96   0.118723  599.98  0.054809  (-0.078530 -0.092560  0.200188)
 20:    709.04   0.000166    0.84  0.000073  (-0.005477 -0.002269 -0.006170)
 21:    722.80   0.024300  122.80  0.010491  ( 0.033273  0.046381 -0.085048)
 22:    729.67   0.032215  162.80  0.013777  ( 0.077327  0.063113  0.061763)
 23:    752.26   0.010489   53.01  0.004351  (-0.050055  0.042423  0.006793)
 24:    998.08   0.033644  170.02  0.010519  ( 0.023730 -0.093651 -0.034434)
 25:   1073.72   0.026203  132.42  0.007616  ( 0.026208  0.032626 -0.076578)
 26:   1105.80   0.010251   51.80  0.002893  ( 0.013982 -0.049711 -0.015037)
 27:   1708.54   0.008136   41.11  0.001486  (-0.010260 -0.012873  0.034857)
 28:   1763.65   0.173942  879.03  0.030778  ( 0.112408  0.101239  0.088841)
 29:   1784.08   0.192902  974.85  0.033742  ( 0.060700  0.072618 -0.157429)
 30:   1902.27   0.001385    7.00  0.000227  (-0.012573  0.008296 -0.000596)
 31:   1906.92   0.002530   12.79  0.000414  ( 0.015341  0.009187  0.009708)
 32:   1908.00   0.000419    2.12  0.000069  (-0.001816 -0.002045  0.007816)
 33:   1917.16   0.012712   64.24  0.002069  (-0.011470 -0.038063 -0.022110)
 34:   1919.16   0.004655   23.53  0.000757  (-0.007589 -0.012644  0.023228)
 35:   1925.34   0.073193  369.89  0.011863  (-0.087476  0.064836 -0.002741)

--------------------------
THERMOCHEMISTRY AT 298.15K
--------------------------

Temperature         ... 298.15 K
Pressure            ... 1.00 atm
Total Mass          ... 90.02 AMU

Throughout the following assumptions are being made:
  (1) The electronic state is orbitally nondegenerate
  (2) There are no thermally accessible electronically excited states
  (3) Hindered rotations indicated by low frequency modes are not
      treated as such but are treated as vibrations and this may
      cause some error
  (4) All equations used are the standard statistical mechanics
      equations for an ideal gas
  (5) All vibrations are strictly harmonic

freq.      48.56  E(vib)   ...       0.53
freq.     104.88  E(vib)   ...       0.46
freq.     149.50  E(vib)   ...       0.40
freq.     226.40  E(vib)   ...       0.33
freq.     285.20  E(vib)   ...       0.28
freq.     325.60  E(vib)   ...       0.24
freq.     414.26  E(vib)   ...       0.19
freq.     417.04  E(vib)   ...       0.18
freq.     429.86  E(vib)   ...       0.18
freq.     486.24  E(vib)   ...       0.15
freq.     515.24  E(vib)   ...       0.13
freq.     543.59  E(vib)   ...       0.12
freq.     674.08  E(vib)   ...       0.08
freq.     675.96  E(vib)   ...       0.08
freq.     709.04  E(vib)   ...       0.07
freq.     722.80  E(vib)   ...       0.07
freq.     729.67  E(vib)   ...       0.06
freq.     752.26  E(vib)   ...       0.06
freq.     998.08  E(vib)   ...       0.02
freq.    1073.72  E(vib)   ...       0.02
freq.    1105.80  E(vib)   ...       0.02
freq.    1708.54  E(vib)   ...       0.00
freq.    1763.65  E(vib)   ...       0.00
freq.    1784.08  E(vib)   ...       0.00
freq.    1902.27  E(vib)   ...       0.00
freq.    1906.92  E(vib)   ...       0.00
freq.    1908.00  E(vib)   ...       0.00
freq.    1917.16  E(vib)   ...       0.00
freq.    1919.16  E(vib)   ...       0.00
freq.    1925.34  E(vib)   ...       0.00

------------
INNER ENERGY
------------

The inner energy is: U= E(el) + E(ZPE) + E(vib) + E(rot) + E(trans)
    E(el)   - is the total energy from the electronic structure calculation
              = E(kin-el) + E(nuc-el) + E(el-el) + E(nuc-nuc)
    E(ZPE)  - the the zero temperature vibrational energy from the frequency calculation
    E(vib)  - the the finite temperature correction to E(ZPE) due to population
              of excited vibrational states
    E(rot)  - is the rotational thermal energy
    E(trans)- is the translational thermal energy

Summary of contributions to the inner energy U:
Electronic energy                ...   -732.28821761 Eh
Zero point energy                ...      0.06406874 Eh      40.20 kcal/mol
Thermal vibrational correction   ...      0.00582112 Eh       3.65 kcal/mol
Thermal rotational correction    ...      0.00141627 Eh       0.89 kcal/mol
Thermal translational correction ...      0.00141627 Eh       0.89 kcal/mol
-----------------------------------------------------------------------
Total thermal energy                   -732.21549521 Eh

Summary of corrections to the electronic energy:
(perhaps to be used in another calculation)
Total thermal correction                  0.00865366 Eh       5.43 kcal/mol
Non-thermal (ZPE) correction              0.06406874 Eh      40.20 kcal/mol
-----------------------------------------------------------------------
Total correction                          0.07272241 Eh      45.63 kcal/mol

--------
ENTHALPY
--------

The enthalpy is H = U + kB*T
                kB is Boltzmann's constant
Total free energy                 ...   -732.21549521 Eh
Thermal Enthalpy correction       ...      0.00094421 Eh       0.59 kcal/mol
-----------------------------------------------------------------------
Total Enthalpy                    ...   -732.21455100 Eh

Note: Only C1 symmetry has been detected, increase convergence thresholds
      if your molecule has a higher symmetry. Symmetry factor of 1.0 is
      used for the rotational entropy correction.

Note: Rotational entropy computed according to Herzberg
Infrared and Raman Spectra, Chapter V,1, Van Nostrand Reinhold, 1945
Point Group:  C1, Symmetry Number:   1
Rotational constants in cm-1:     0.108189     0.101352     0.056293

Vibrational entropy computed according to the QRRHO of S. Grimme
Chem.Eur.J. 2012 18 9955

-------
ENTROPY
-------

The entropy contributions are T*S = T*(S(el)+S(vib)+S(rot)+S(trans))
     S(el)   - electronic entropy
     S(vib)  - vibrational entropy
     S(rot)  - rotational entropy
     S(trans)- translational entropy
The entropies will be listed as multiplied by the temperature to get
units of energy

Electronic entropy                ...      0.00000000 Eh      0.00 kcal/mol
Vibrational entropy               ...      0.00982312 Eh      6.16 kcal/mol
Rotational entropy                ...      0.01299966 Eh      8.16 kcal/mol
Translational entropy             ...      0.01872231 Eh     11.75 kcal/mol
-----------------------------------------------------------------------
Final entropy term                ...      0.04154509 Eh     26.07 kcal/mol

In case the symmetry of your molecule has not been determined correctly
or in case you have a reason to use a different symmetry number we print
out the resulting rotational entropy values for sn=1,12 :
 --------------------------------------------------------
|  sn= 1 | S(rot)=       0.01299966 Eh      8.16 kcal/mol|
|  sn= 2 | S(rot)=       0.01234520 Eh      7.75 kcal/mol|
|  sn= 3 | S(rot)=       0.01196237 Eh      7.51 kcal/mol|
|  sn= 4 | S(rot)=       0.01169075 Eh      7.34 kcal/mol|
|  sn= 5 | S(rot)=       0.01148006 Eh      7.20 kcal/mol|
|  sn= 6 | S(rot)=       0.01130791 Eh      7.10 kcal/mol|
|  sn= 7 | S(rot)=       0.01116237 Eh      7.00 kcal/mol|
|  sn= 8 | S(rot)=       0.01103629 Eh      6.93 kcal/mol|
|  sn= 9 | S(rot)=       0.01092508 Eh      6.86 kcal/mol|
|  sn=10 | S(rot)=       0.01082560 Eh      6.79 kcal/mol|
|  sn=11 | S(rot)=       0.01073561 Eh      6.74 kcal/mol|
|  sn=12 | S(rot)=       0.01065346 Eh      6.69 kcal/mol|
 --------------------------------------------------------

-------------------
GIBBS FREE ENERGY
-------------------

The Gibbs free energy is G = H - T*S

Total enthalpy                    ...   -732.21455100 Eh
Total entropy correction          ...     -0.04154509 Eh    -26.07 kcal/mol
-----------------------------------------------------------------------
Final Gibbs free energy         ...   -732.25609608 Eh

For completeness - the Gibbs free energy minus the electronic energy
G-E(el)                           ...      0.03212153 Eh     20.16 kcal/mol

                             ****ORCA TERMINATED NORMALLY****
TOTAL RUN TIME: 0 days 4 hours 2 minutes 9 seconds 384 msec
