                         Program Version 6.1.0  -  RELEASE   -
|  1> # Geometry optimization for (AlH3)n cluster
|  2>
|  3> %pal nprocs 24  end
|  4>
|  5> %geom MaxIter 500 end
|  6>
|  7> %elprop Polar 1 end # invoke raman
|  8>
|  9> ! PBEh-3c
| 10> ! RKS	# closed shell for AlH3
| 11> ! Freq 	# Frequency analysis to check the stabiltity of the structures
| 12>
| 13>
| 14> ! NoPop # population analysis not necessary
| 15>
| 16> ! DEFGRID3
| 17> ! ExtremeSCF
| 18> ! VeryTightOpt
| 19>
| 20>
| 21> ! SmallPrint
| 22>
| 23>
| 24> * xyzFile 0 1 start.xyz # only maingroup elements H and Al so there should be no net spin
| 25>
| 26>                          ****END OF INPUT****
 Total Charge           Charge          ....    0
 Multiplicity           Mult            ....    1
 Number of Electrons    NEL             ....   80
Dispersion correction           -0.009506540
FINAL SINGLE POINT ENERGY     -1219.482622544554
Dispersion correction             ... done (  0.1 sec)
Dispersion correction           -0.009518499
FINAL SINGLE POINT ENERGY     -1219.483381690936
Dispersion correction             ... done (  0.1 sec)
Dispersion correction           -0.009544686
FINAL SINGLE POINT ENERGY     -1219.484312940632
Dispersion correction             ... done (  0.1 sec)
FINAL SINGLE POINT ENERGY     -1219.484428634641
FINAL SINGLE POINT ENERGY     -1219.484867297207
FINAL SINGLE POINT ENERGY     -1219.485018402751
FINAL SINGLE POINT ENERGY     -1219.485171341868
FINAL SINGLE POINT ENERGY     -1219.485321495348
FINAL SINGLE POINT ENERGY     -1219.485424206339
FINAL SINGLE POINT ENERGY     -1219.485477628724
FINAL SINGLE POINT ENERGY     -1219.485678919813
FINAL SINGLE POINT ENERGY     -1219.485678954342
FINAL SINGLE POINT ENERGY     -1219.485678982450
FINAL SINGLE POINT ENERGY     -1219.485679003123
FINAL SINGLE POINT ENERGY     -1219.485679018735
FINAL SINGLE POINT ENERGY     -1219.485679034752
FINAL SINGLE POINT ENERGY     -1219.485679045839
Dispersion correction             ... done (  0.1 sec)
Dispersion correction           -0.009253659
FINAL SINGLE POINT ENERGY     -1219.485679053290
Dispersion correction             ... done (  0.1 sec)
Dispersion correction           -0.009253780
FINAL SINGLE POINT ENERGY     -1219.485679056927
Dispersion correction             ... done (  0.1 sec)
                    ***********************HURRAY********************

CARTESIAN COORDINATES (ANGSTROEM)
---------------------------------
  Al    -0.546317    0.945145    2.940706
  Al     0.147700   -0.427782    0.317927
  H     -0.402829   -2.036858    0.315376
  H     -0.305633    0.196584   -1.048440
  H     -0.917247    0.043638    1.532332
  H     -1.910414    0.985580    3.723878
  H      0.439513   -0.185460    3.656608
  H      1.588209   -0.465359    0.962447
  Al     0.039694   -3.309237    1.341768
  H      0.161372   -2.284383    2.688151
  H     -1.258075   -4.161038    1.575735
  H      0.325842    2.164658    2.457411
  Al     1.220037   -1.731715    3.857054
  H      0.470584   -1.754429    5.386163
  H      2.717479   -1.361619    3.614903
  H      1.487570   -3.792068    0.970714
  Al     0.674390   -3.444396    5.782824
  H      1.722965   -3.498339    6.951599
  H      1.429126   -3.509632    4.285345
  H     -0.757756   -4.088310    5.697489

 Multiplicity           Mult            ....    1
 Number of Electrons    NEL             ....   80
 Basis Dimension        Dim             ....  120

ORBITAL ENERGIES
----------------

  NO   OCC          E(Eh)            E(eV)
   0   2.0000     -56.654973     -1541.6602
   1   2.0000     -56.628721     -1540.9458
   2   2.0000     -56.625365     -1540.8545
   3   2.0000     -56.617794     -1540.6485
   4   2.0000     -56.608236     -1540.3884
   5   2.0000      -4.389857      -119.4541
   6   2.0000      -4.369893      -118.9108
   7   2.0000      -4.367119      -118.8353
   8   2.0000      -4.359006      -118.6146
   9   2.0000      -4.352308      -118.4323
  10   2.0000      -2.880186       -78.3739
  11   2.0000      -2.879386       -78.3521
  12   2.0000      -2.876283       -78.2676
  13   2.0000      -2.861006       -77.8519
  14   2.0000      -2.858963       -77.7963
  15   2.0000      -2.857963       -77.7691
  16   2.0000      -2.856237       -77.7222
  17   2.0000      -2.854433       -77.6731
  18   2.0000      -2.851966       -77.6059
  19   2.0000      -2.849977       -77.5518
  20   2.0000      -2.847991       -77.4978
  21   2.0000      -2.843914       -77.3868
  22   2.0000      -2.843646       -77.3796
  23   2.0000      -2.840793       -77.3019
  24   2.0000      -2.837148       -77.2027
  25   2.0000      -0.618861       -16.8401
  26   2.0000      -0.574503       -15.6330
  27   2.0000      -0.535875       -14.5819
  28   2.0000      -0.501199       -13.6383
  29   2.0000      -0.444191       -12.0871
  30   2.0000      -0.438829       -11.9411
  31   2.0000      -0.405684       -11.0392
  32   2.0000      -0.401018       -10.9122
  33   2.0000      -0.391740       -10.6598
  34   2.0000      -0.384029       -10.4500
  35   2.0000      -0.375623       -10.2212
  36   2.0000      -0.366546        -9.9742
  37   2.0000      -0.362556        -9.8656
  38   2.0000      -0.356550        -9.7022
  39   2.0000      -0.354377        -9.6431
  40   0.0000      -0.028816        -0.7841
  41   0.0000      -0.013637        -0.3711
  42   0.0000      -0.010121        -0.2754
  43   0.0000       0.007567         0.2059
  44   0.0000       0.019129         0.5205

-------
TIMINGS
-------

Dispersion correction           -0.009253833
FINAL SINGLE POINT ENERGY     -1219.485679060576

DIPOLE MOMENT
-------------

Method             : SCF
Type of density    : Electron Density
Multiplicity       :   1
Irrep              :   0
Energy             : -1219.5118863521538515 Eh
Basis              : AO
                                X                 Y                 Z
Electronic contribution:     -0.383294983      -0.288658767      -0.183712946
Nuclear contribution   :      0.160987213       0.137149732       0.042717309
                        -----------------------------------------
Total Dipole Moment    :     -0.222307770      -0.151509035      -0.140995637
                        -----------------------------------------
Magnitude (a.u.)       :      0.303735908
Magnitude (Debye)      :      0.772035324

VIBRATIONAL FREQUENCIES
-----------------------

Scaling factor for frequencies =  1.000000000  (already applied!)

     0:       0.00 cm**-1
     1:       0.00 cm**-1
     2:       0.00 cm**-1
     3:       0.00 cm**-1
     4:       0.00 cm**-1
     5:       0.00 cm**-1
     6:      38.06 cm**-1
     7:      44.99 cm**-1
     8:      54.61 cm**-1
     9:      92.20 cm**-1
    10:     108.59 cm**-1
    11:     130.78 cm**-1
    12:     181.33 cm**-1
    13:     186.27 cm**-1
    14:     214.16 cm**-1
    15:     234.45 cm**-1
    16:     289.01 cm**-1
    17:     295.39 cm**-1
    18:     356.66 cm**-1
    19:     366.96 cm**-1
    20:     391.54 cm**-1
    21:     405.13 cm**-1
    22:     435.36 cm**-1
    23:     459.33 cm**-1
    24:     497.81 cm**-1
    25:     518.12 cm**-1
    26:     566.95 cm**-1
    27:     592.97 cm**-1
    28:     603.41 cm**-1
    29:     693.03 cm**-1
    30:     712.64 cm**-1
    31:     715.26 cm**-1
    32:     725.88 cm**-1
    33:     740.17 cm**-1
    34:     751.04 cm**-1
    35:     788.02 cm**-1
    36:     796.75 cm**-1
    37:     813.50 cm**-1
    38:     850.01 cm**-1
    39:     897.31 cm**-1
    40:     995.96 cm**-1
    41:    1117.11 cm**-1
    42:    1139.12 cm**-1
    43:    1148.05 cm**-1
    44:    1445.15 cm**-1
    45:    1539.12 cm**-1
    46:    1667.94 cm**-1
    47:    1794.67 cm**-1
    48:    1882.84 cm**-1
    49:    1925.16 cm**-1
    50:    1990.71 cm**-1
    51:    1999.73 cm**-1
    52:    2007.97 cm**-1
    53:    2014.21 cm**-1
    54:    2018.38 cm**-1
    55:    2026.23 cm**-1
    56:    2031.02 cm**-1
    57:    2035.48 cm**-1
    58:    2045.30 cm**-1
    59:    2071.69 cm**-1

IR SPECTRUM
-----------

 Mode   freq       eps      Int      T**2         TX        TY        TZ
       cm**-1   L/(mol*cm) km/mol    a.u.
----------------------------------------------------------------------------
  6:     38.06   0.000067    0.34  0.000547  (-0.020428 -0.002180 -0.011181)
  7:     44.99   0.000047    0.24  0.000328  (-0.000658  0.006807 -0.016762)
  8:     54.61   0.000178    0.90  0.001017  (-0.030090 -0.007802  0.007152)
  9:     92.20   0.000282    1.42  0.000954  ( 0.020798 -0.015828  0.016458)
 10:    108.59   0.000119    0.60  0.000341  (-0.009878  0.004757 -0.014875)
 11:    130.78   0.000082    0.42  0.000196  (-0.005844  0.008203 -0.009744)
 12:    181.33   0.000676    3.42  0.001164  ( 0.022577 -0.024031  0.008761)
 13:    186.27   0.000616    3.11  0.001032  ( 0.022079 -0.001269  0.023310)
 14:    214.16   0.000993    5.02  0.001448  ( 0.010245  0.004475  0.036367)
 15:    234.45   0.000309    1.56  0.000411  (-0.009524  0.003686 -0.017521)
 16:    289.01   0.002882   14.56  0.003112  (-0.013951  0.033300 -0.042526)
 17:    295.39   0.001640    8.29  0.001733  ( 0.028137  0.008395  0.029507)
 18:    356.66   0.000979    4.95  0.000857  ( 0.008312 -0.014346  0.024120)
 19:    366.96   0.001699    8.58  0.001444  (-0.008804 -0.016696  0.032987)
 20:    391.54   0.005909   29.86  0.004709  ( 0.048599 -0.019374  0.044407)
 21:    405.13   0.001335    6.75  0.001028  ( 0.020930 -0.003457  0.024044)
 22:    435.36   0.000633    3.20  0.000454  (-0.002535  0.017926  0.011235)
 23:    459.33   0.000845    4.27  0.000574  ( 0.012334  0.010658  0.017566)
 24:    497.81   0.010693   54.04  0.006703  (-0.017943  0.018866 -0.077621)
 25:    518.12   0.016013   80.92  0.009645  (-0.012108 -0.010618  0.096877)
 26:    566.95   0.010834   54.75  0.005963  (-0.032592 -0.033774 -0.061323)
 27:    592.97   0.016910   85.45  0.008899  ( 0.049696 -0.040201  0.069378)
 28:    603.41   0.046598  235.49  0.024099  ( 0.037046 -0.150285 -0.011870)
 29:    693.03   0.082341  416.12  0.037077  (-0.029078  0.145496 -0.122729)
 30:    712.64   0.100479  507.78  0.044000  (-0.022436  0.113167  0.175185)
 31:    715.26   0.133180  673.04  0.058106  ( 0.038529 -0.236151  0.029222)
 32:    725.88   0.075218  380.12  0.032337  (-0.091644 -0.020214  0.153395)
 33:    740.17   0.020508  103.64  0.008647  ( 0.040882  0.054138 -0.063595)
 34:    751.04   0.011604   58.64  0.004821  (-0.037151 -0.025543  0.052809)
 35:    788.02   0.096616  488.26  0.038261  ( 0.014513 -0.011669  0.194715)
 36:    796.75   0.076499  386.59  0.029962  ( 0.061311 -0.115622  0.113291)
 37:    813.50   0.037019  187.08  0.014201  ( 0.020614  0.115567  0.020494)
 38:    850.01   0.016938   85.60  0.006218  ( 0.005525  0.042203  0.066383)
 39:    897.31   0.048312  244.15  0.016802  (-0.112266 -0.057823 -0.029236)
 40:    995.96   0.035772  180.78  0.011208  ( 0.081695 -0.048477  0.046736)
 41:   1117.11   0.011648   58.86  0.003254  (-0.008300 -0.020500 -0.052580)
 42:   1139.12   0.046406  234.52  0.012713  ( 0.100741  0.013279  0.048867)
 43:   1148.05   0.079992  404.25  0.021744  (-0.022004  0.145057 -0.014764)
 44:   1445.15   0.045219  228.52  0.009765  (-0.036642  0.091515  0.006850)
 45:   1539.12   0.175482  886.81  0.035580  (-0.007770 -0.109031  0.153726)
 46:   1667.94   0.083285  420.89  0.015582  (-0.020441 -0.047289  0.113701)
 47:   1794.67   0.056392  284.98  0.009806  (-0.011941  0.093943  0.028943)
 48:   1882.84   0.131126  662.66  0.021733  (-0.023222 -0.060962  0.132202)
 49:   1925.16   0.337895  1707.59  0.054772  (-0.053134  0.216798  0.070339)
 50:   1990.71   0.001408    7.11  0.000221  ( 0.006711 -0.012853  0.003225)
 51:   1999.73   0.054935  277.62  0.008573  (-0.029638  0.016016 -0.086243)
 52:   2007.97   0.004139   20.92  0.000643  (-0.003026 -0.024642  0.005191)
 53:   2014.21   0.035168  177.72  0.005449  (-0.069501 -0.021055  0.013226)
 54:   2018.38   0.011816   59.71  0.001827  ( 0.012271  0.031899 -0.025666)
 55:   2026.23   0.022548  113.95  0.003473  ( 0.044297  0.009502  0.037685)
 56:   2031.02   0.015675   79.21  0.002408  ( 0.001330 -0.021820  0.043938)
 57:   2035.48   0.049005  247.65  0.007513  (-0.086643 -0.002397 -0.000589)
 58:   2045.30   0.095625  483.25  0.014590  ( 0.099251  0.014178  0.067367)
 59:   2071.69   0.066206  334.58  0.009973  (-0.036581  0.042112 -0.082832)

--------------------------
THERMOCHEMISTRY AT 298.15K
--------------------------

Temperature         ...   298.15 K
Pressure            ...     1.00 atm
Total Mass          ...   150.03 AMU
Quasi RRHO          ...     True
Cut-Off Frequency   ...     1.00 cm^-1

Throughout the following assumptions are being made:
  (1) The electronic state is orbitally nondegenerate
  (2) There are no thermally accessible electronically excited states
  (3) Hindered rotations indicated by low frequency modes are not
      treated as such but are treated as vibrations and this may
      cause some error
  (4) All equations used are the standard statistical mechanics
      equations for an ideal gas
  (5) All vibrations are strictly harmonic

freq.      38.06  E(vib)   ...       0.54
freq.      44.99  E(vib)   ...       0.53
freq.      54.61  E(vib)   ...       0.52
freq.      92.20  E(vib)   ...       0.47
freq.     108.59  E(vib)   ...       0.45
freq.     130.78  E(vib)   ...       0.43
freq.     181.33  E(vib)   ...       0.37
freq.     186.27  E(vib)   ...       0.37
freq.     214.16  E(vib)   ...       0.34
freq.     234.45  E(vib)   ...       0.32
freq.     289.01  E(vib)   ...       0.27
freq.     295.39  E(vib)   ...       0.27
freq.     356.66  E(vib)   ...       0.22
freq.     366.96  E(vib)   ...       0.22
freq.     391.54  E(vib)   ...       0.20
freq.     405.13  E(vib)   ...       0.19
freq.     435.36  E(vib)   ...       0.17
freq.     459.33  E(vib)   ...       0.16
freq.     497.81  E(vib)   ...       0.14
freq.     518.12  E(vib)   ...       0.13
freq.     566.95  E(vib)   ...       0.11
freq.     592.97  E(vib)   ...       0.10
freq.     603.41  E(vib)   ...       0.10
freq.     693.03  E(vib)   ...       0.07
freq.     712.64  E(vib)   ...       0.07
freq.     715.26  E(vib)   ...       0.07
freq.     725.88  E(vib)   ...       0.06
freq.     740.17  E(vib)   ...       0.06
freq.     751.04  E(vib)   ...       0.06
freq.     788.02  E(vib)   ...       0.05
freq.     796.75  E(vib)   ...       0.05
freq.     813.50  E(vib)   ...       0.05
freq.     850.01  E(vib)   ...       0.04
freq.     897.31  E(vib)   ...       0.03
freq.     995.96  E(vib)   ...       0.02
freq.    1117.11  E(vib)   ...       0.01
freq.    1139.12  E(vib)   ...       0.01
freq.    1148.05  E(vib)   ...       0.01
freq.    1445.15  E(vib)   ...       0.00
freq.    1539.12  E(vib)   ...       0.00
freq.    1667.94  E(vib)   ...       0.00
freq.    1794.67  E(vib)   ...       0.00
freq.    1882.84  E(vib)   ...       0.00
freq.    1925.16  E(vib)   ...       0.00
freq.    1990.71  E(vib)   ...       0.00
freq.    1999.73  E(vib)   ...       0.00
freq.    2007.97  E(vib)   ...       0.00
freq.    2014.21  E(vib)   ...       0.00
freq.    2018.38  E(vib)   ...       0.00
freq.    2026.23  E(vib)   ...       0.00
freq.    2031.02  E(vib)   ...       0.00
freq.    2035.48  E(vib)   ...       0.00
freq.    2045.30  E(vib)   ...       0.00
freq.    2071.69  E(vib)   ...       0.00

------------
INNER ENERGY
------------

The inner energy is: U= E(el) + E(ZPE) + E(vib) + E(rot) + E(trans)
    E(el)   - is the total energy from the electronic structure calculation
              = E(kin-el) + E(nuc-el) + E(el-el) + E(nuc-nuc)
    E(ZPE)  - the the zero temperature vibrational energy from the frequency calculation
    E(vib)  - the the finite temperature correction to E(ZPE) due to population
              of excited vibrational states
    E(rot)  - is the rotational thermal energy
    E(trans)- is the translational thermal energy

Summary of contributions to the inner energy U:
Electronic energy                ...  -1219.48567906 Eh
Zero point energy                ...      0.11491882 Eh      72.11 kcal/mol
Thermal vibrational correction   ...      0.01165005 Eh       7.31 kcal/mol
Thermal rotational correction    ...      0.00141627 Eh       0.89 kcal/mol
Thermal translational correction ...      0.00141627 Eh       0.89 kcal/mol
-----------------------------------------------------------------------
Total thermal energy                  -1219.35627765 Eh

Summary of corrections to the electronic energy:
(perhaps to be used in another calculation)
Total thermal correction                  0.01448259 Eh       9.09 kcal/mol
Non-thermal (ZPE) correction              0.11491882 Eh      72.11 kcal/mol
-----------------------------------------------------------------------
Total correction                          0.12940141 Eh      81.20 kcal/mol

--------
ENTHALPY
--------

The enthalpy is H = U + kB*T
                kB is Boltzmann's constant
Total thermal energy              ...  -1219.35627765 Eh
Thermal Enthalpy correction       ...      0.00094421 Eh       0.59 kcal/mol
-----------------------------------------------------------------------
Total Enthalpy                    ...  -1219.35533344 Eh

Note: Only C1 symmetry has been detected, increase convergence thresholds
      if your molecule has a higher symmetry. Symmetry factor of 1.0 is
      used for the rotational entropy correction.

Note: Rotational entropy computed according to Herzberg
Infrared and Raman Spectra, Chapter V,1, Van Nostrand Reinhold, 1945
Point Group:  C1, Symmetry Number:   1
Rotational constants in cm-1:     0.045698     0.022347     0.016486

Vibrational entropy computed according to the QRRHO of S. Grimme
Chem.Eur.J. 2012 18 9955 using a reference frequency of 100.0 cm-1

-------
ENTROPY
-------

The entropy contributions are T*S = T*(S(el)+S(vib)+S(rot)+S(trans))
     S(el)   - electronic entropy
     S(vib)  - vibrational entropy
     S(rot)  - rotational entropy
     S(trans)- translational entropy
The entropies will be listed as multiplied by the temperature to get
units of energy

Electronic entropy                ...      0.00000000 Eh      0.00 kcal/mol
Vibrational entropy               ...      0.02044323 Eh     12.83 kcal/mol
Rotational entropy                ...      0.01470003 Eh      9.22 kcal/mol
Translational entropy             ...      0.01944577 Eh     12.20 kcal/mol
-----------------------------------------------------------------------
Final entropy term                ...      0.05458903 Eh     34.26 kcal/mol

In case the symmetry of your molecule has not been determined correctly
or in case you have a reason to use a different symmetry number we print
out the resulting rotational entropy values for sn=1,12:

 non-linear molecules -----------------------------------
|  sn= 1 | S(rot)=       0.01470003 Eh      9.22 kcal/mol|
|  sn= 2 | S(rot)=       0.01404557 Eh      8.81 kcal/mol|
|  sn= 3 | S(rot)=       0.01366274 Eh      8.57 kcal/mol|
|  sn= 4 | S(rot)=       0.01339111 Eh      8.40 kcal/mol|
|  sn= 5 | S(rot)=       0.01318042 Eh      8.27 kcal/mol|
|  sn= 6 | S(rot)=       0.01300828 Eh      8.16 kcal/mol|

                             ****ORCA TERMINATED NORMALLY****
TOTAL RUN TIME: 0 days 0 hours 41 minutes 31 seconds 619 msec
