                         Program Version 6.1.0  -  RELEASE   -
|  1> # Geometry optimization for (AlH3)n cluster
|  2>
|  3> %pal nprocs 24  end
|  4>
|  5> %geom MaxIter 500 end
|  6>
|  7> %elprop Polar 1 end # invoke raman
|  8>
|  9> ! PBEh-3c
| 10> ! RKS	# closed shell for AlH3
| 11> ! Freq 	# Frequency analysis to check the stabiltity of the structures
| 12>
| 13>
| 14> ! NoPop # population analysis not necessary
| 15>
| 16> ! DEFGRID3
| 17> ! ExtremeSCF
| 18> ! VeryTightOpt
| 19>
| 20>
| 21> ! SmallPrint
| 22>
| 23>
| 24> * xyzFile 0 1 start.xyz # only maingroup elements H and Al so there should be no net spin
| 25>
| 26>                          ****END OF INPUT****
 Total Charge           Charge          ....    0
 Multiplicity           Mult            ....    1
 Number of Electrons    NEL             ....   96
Dispersion correction           -0.012266289
FINAL SINGLE POINT ENERGY     -1463.383717581380
Dispersion correction             ... done (  0.1 sec)
Dispersion correction           -0.012301185
FINAL SINGLE POINT ENERGY     -1463.384561265769
Dispersion correction             ... done (  0.1 sec)
Dispersion correction           -0.012385365
FINAL SINGLE POINT ENERGY     -1463.385489316590
Dispersion correction             ... done (  0.1 sec)
FINAL SINGLE POINT ENERGY     -1463.385558973032
FINAL SINGLE POINT ENERGY     -1463.385777354605
FINAL SINGLE POINT ENERGY     -1463.385812605508
FINAL SINGLE POINT ENERGY     -1463.385884527446
FINAL SINGLE POINT ENERGY     -1463.385909035976
FINAL SINGLE POINT ENERGY     -1463.385919234811
FINAL SINGLE POINT ENERGY     -1463.385926816793
FINAL SINGLE POINT ENERGY     -1463.385998151828
FINAL SINGLE POINT ENERGY     -1463.385998205960
FINAL SINGLE POINT ENERGY     -1463.385998245641
FINAL SINGLE POINT ENERGY     -1463.385998272570
FINAL SINGLE POINT ENERGY     -1463.385998294683
FINAL SINGLE POINT ENERGY     -1463.385998310435
FINAL SINGLE POINT ENERGY     -1463.385998321901
Dispersion correction             ... done (  0.1 sec)
Dispersion correction           -0.012213035
FINAL SINGLE POINT ENERGY     -1463.385998330753
Dispersion correction             ... done (  0.1 sec)
Dispersion correction           -0.012212974
FINAL SINGLE POINT ENERGY     -1463.385998338486
Dispersion correction             ... done (  0.1 sec)
                    ***********************HURRAY********************

CARTESIAN COORDINATES (ANGSTROEM)
---------------------------------
  Al    -0.046213    1.183215    3.094296
  Al     0.316529   -0.301362    0.420035
  H      1.385395   -1.532376    0.859908
  H     -1.147126   -0.805229    0.713935
  H      0.787950    0.692669    1.701058
  H     -1.408354    1.826309    2.635531
  H     -0.409611   -0.354742    3.666271
  H      0.873376    0.346615   -0.898164
  Al     1.102931   -3.097167    1.449268
  H      0.204559   -2.651064    2.798596
  H      0.105726   -3.809121    0.459953
  H      1.037852    1.831918    4.032133
  Al     0.623402   -1.645245    4.124400
  H     -0.922869   -2.292949    4.685934
  H      2.040659   -1.102596    3.684105
  H      2.503640   -3.632671    1.925511
  Al    -1.790195   -2.780681    6.012555
  H     -2.315286   -4.248322    5.808323
  H     -2.541139   -1.549858    6.640647
  Al     1.136891   -2.430303    6.575382
  H      2.229648   -2.550828    7.684722
  H      0.719687   -0.990761    5.890485
  H      1.296264   -3.125871    5.091974
  H     -0.367357   -2.984203    7.009972

 Multiplicity           Mult            ....    1
 Number of Electrons    NEL             ....   96
 Basis Dimension        Dim             ....  144

ORBITAL ENERGIES
----------------

  NO   OCC          E(Eh)            E(eV)
   0   2.0000     -56.658670     -1541.7608
   1   2.0000     -56.644290     -1541.3695
   2   2.0000     -56.624605     -1540.8338
   3   2.0000     -56.615689     -1540.5912
   4   2.0000     -56.612304     -1540.4991
   5   2.0000     -56.612239     -1540.4973
   6   2.0000      -4.390275      -119.4654
   7   2.0000      -4.386615      -119.3658
   8   2.0000      -4.366074      -118.8069
   9   2.0000      -4.357444      -118.5721
  10   2.0000      -4.353649      -118.4688
  11   2.0000      -4.353616      -118.4679
  12   2.0000      -2.880713       -78.3882
  13   2.0000      -2.880675       -78.3871
  14   2.0000      -2.876599       -78.2762
  15   2.0000      -2.876483       -78.2731
  16   2.0000      -2.876345       -78.2693
  17   2.0000      -2.872188       -78.1562
  18   2.0000      -2.857426       -77.7545
  19   2.0000      -2.854735       -77.6813
  20   2.0000      -2.850747       -77.5728
  21   2.0000      -2.848305       -77.5063
  22   2.0000      -2.846517       -77.4577
  23   2.0000      -2.844504       -77.4029
  24   2.0000      -2.844471       -77.4020
  25   2.0000      -2.842690       -77.3535
  26   2.0000      -2.842658       -77.3527
  27   2.0000      -2.842319       -77.3434
  28   2.0000      -2.838569       -77.2414
  29   2.0000      -2.838526       -77.2402
  30   2.0000      -0.637673       -17.3520
  31   2.0000      -0.584158       -15.8957
  32   2.0000      -0.531870       -14.4729
  33   2.0000      -0.522555       -14.2194
  34   2.0000      -0.506209       -13.7746
  35   2.0000      -0.454440       -12.3660
  36   2.0000      -0.438844       -11.9415
  37   2.0000      -0.415325       -11.3016
  38   2.0000      -0.405600       -11.0369
  39   2.0000      -0.400474       -10.8974
  40   2.0000      -0.396830       -10.7983
  41   2.0000      -0.384600       -10.4655
  42   2.0000      -0.373389       -10.1604
  43   2.0000      -0.368159       -10.0181
  44   2.0000      -0.366251        -9.9662
  45   2.0000      -0.355779        -9.6812
  46   2.0000      -0.347480        -9.4554
  47   2.0000      -0.334252        -9.0955
  48   0.0000      -0.039268        -1.0685
  49   0.0000      -0.014463        -0.3935
  50   0.0000      -0.011101        -0.3021
  51   0.0000      -0.006259        -0.1703
  52   0.0000       0.011185         0.3044

-------
TIMINGS
-------

Dispersion correction           -0.012212909
FINAL SINGLE POINT ENERGY     -1463.385998344422

DIPOLE MOMENT
-------------

Method             : SCF
Type of density    : Electron Density
Multiplicity       :   1
Irrep              :   0
Energy             : -1463.4181478208922726 Eh
Basis              : AO
                                X                 Y                 Z
Electronic contribution:      0.037250698      -0.636792499       1.539872184
Nuclear contribution   :      0.037559626       0.246077989      -0.556670630
                        -----------------------------------------
Total Dipole Moment    :      0.074810324      -0.390714511       0.983201554
                        -----------------------------------------
Magnitude (a.u.)       :      1.060631750
Magnitude (Debye)      :      2.695911661

VIBRATIONAL FREQUENCIES
-----------------------

Scaling factor for frequencies =  1.000000000  (already applied!)

     0:       0.00 cm**-1
     1:       0.00 cm**-1
     2:       0.00 cm**-1
     3:       0.00 cm**-1
     4:       0.00 cm**-1
     5:       0.00 cm**-1
     6:      21.11 cm**-1
     7:      41.39 cm**-1
     8:      50.81 cm**-1
     9:      82.93 cm**-1
    10:     105.37 cm**-1
    11:     133.52 cm**-1
    12:     139.31 cm**-1
    13:     159.67 cm**-1
    14:     179.44 cm**-1
    15:     207.59 cm**-1
    16:     231.35 cm**-1
    17:     247.01 cm**-1
    18:     273.54 cm**-1
    19:     301.10 cm**-1
    20:     331.93 cm**-1
    21:     370.71 cm**-1
    22:     373.69 cm**-1
    23:     395.74 cm**-1
    24:     407.08 cm**-1
    25:     409.19 cm**-1
    26:     426.09 cm**-1
    27:     463.80 cm**-1
    28:     487.52 cm**-1
    29:     521.24 cm**-1
    30:     538.48 cm**-1
    31:     574.67 cm**-1
    32:     595.34 cm**-1
    33:     616.85 cm**-1
    34:     689.56 cm**-1
    35:     700.82 cm**-1
    36:     717.62 cm**-1
    37:     724.45 cm**-1
    38:     729.57 cm**-1
    39:     745.63 cm**-1
    40:     770.31 cm**-1
    41:     774.14 cm**-1
    42:     788.82 cm**-1
    43:     828.91 cm**-1
    44:     875.14 cm**-1
    45:     889.41 cm**-1
    46:     972.11 cm**-1
    47:    1005.38 cm**-1
    48:    1079.11 cm**-1
    49:    1110.56 cm**-1
    50:    1127.96 cm**-1
    51:    1137.92 cm**-1
    52:    1159.23 cm**-1
    53:    1194.19 cm**-1
    54:    1685.96 cm**-1
    55:    1738.99 cm**-1
    56:    1777.11 cm**-1
    57:    1789.94 cm**-1
    58:    1843.85 cm**-1
    59:    1880.56 cm**-1
    60:    1919.46 cm**-1
    61:    1955.23 cm**-1
    62:    2000.63 cm**-1
    63:    2006.20 cm**-1
    64:    2006.81 cm**-1
    65:    2009.82 cm**-1
    66:    2014.81 cm**-1
    67:    2017.20 cm**-1
    68:    2022.57 cm**-1
    69:    2025.38 cm**-1
    70:    2026.32 cm**-1
    71:    2061.11 cm**-1

IR SPECTRUM
-----------

 Mode   freq       eps      Int      T**2         TX        TY        TZ
       cm**-1   L/(mol*cm) km/mol    a.u.
----------------------------------------------------------------------------
  6:     21.11   0.000098    0.50  0.001451  (-0.004736  0.036785  0.008669)
  7:     41.39   0.000017    0.08  0.000125  ( 0.006214 -0.004344  0.008234)
  8:     50.81   0.000032    0.16  0.000197  (-0.001885  0.011534  0.007745)
  9:     82.93   0.000037    0.19  0.000141  (-0.000973  0.003643 -0.011263)
 10:    105.37   0.000108    0.54  0.000319  ( 0.017379  0.001278  0.003860)
 11:    133.52   0.000077    0.39  0.000179  (-0.001654 -0.013249 -0.000855)
 12:    139.31   0.000643    3.25  0.001440  ( 0.009848 -0.034686 -0.011811)
 13:    159.67   0.000004    0.02  0.000008  ( 0.000566 -0.000951 -0.002568)
 14:    179.44   0.000186    0.94  0.000323  (-0.009444  0.001798 -0.015189)
 15:    207.59   0.000503    2.54  0.000756  (-0.005393  0.016222 -0.021535)
 16:    231.35   0.002052   10.37  0.002768  ( 0.000747  0.000851  0.052604)
 17:    247.01   0.000351    1.77  0.000444  ( 0.000768 -0.002142 -0.020938)
 18:    273.54   0.001453    7.34  0.001657  (-0.008540 -0.021075  0.033770)
 19:    301.10   0.000784    3.96  0.000813  (-0.005199  0.024032 -0.014430)
 20:    331.93   0.001995   10.08  0.001875  ( 0.000493 -0.014675  0.040738)
 21:    370.71   0.000882    4.46  0.000742  (-0.025926 -0.007280  0.004161)
 22:    373.69   0.000210    1.06  0.000175  (-0.004495 -0.012367 -0.001392)
 23:    395.74   0.009333   47.16  0.007359  (-0.056174 -0.035779  0.054071)
 24:    407.08   0.001486    7.51  0.001139  (-0.014982 -0.016620  0.025262)
 25:    409.19   0.001160    5.86  0.000885  (-0.015119 -0.009299  0.023867)
 26:    426.09   0.000007    0.03  0.000005  (-0.000427 -0.001328  0.001746)
 27:    463.80   0.002578   13.03  0.001735  ( 0.016927 -0.007630  0.037285)
 28:    487.52   0.000363    1.84  0.000233  ( 0.001906 -0.014919 -0.002527)
 29:    521.24   0.030662  154.95  0.018357  ( 0.063804  0.056752 -0.105192)
 30:    538.48   0.000491    2.48  0.000285  (-0.004223 -0.015403  0.005437)
 31:    574.67   0.014138   71.45  0.007677  (-0.038008 -0.019249  0.076565)
 32:    595.34   0.020063  101.39  0.010516  ( 0.012875 -0.101430 -0.007910)
 33:    616.85   0.033859  171.11  0.017130  ( 0.046774  0.035119 -0.117083)
 34:    689.56   0.035894  181.39  0.016244  ( 0.035442 -0.099449 -0.071398)
 35:    700.82   0.100423  507.49  0.044716  ( 0.059169 -0.166993 -0.115450)
 36:    717.62   0.113242  572.28  0.049244  (-0.052707 -0.086496  0.197445)
 37:    724.45   0.091911  464.48  0.039592  (-0.088713 -0.178104  0.000819)
 38:    729.57   0.106483  538.12  0.045547  ( 0.149091 -0.146417 -0.043368)
 39:    745.63   0.057957  292.89  0.024256  ( 0.099272 -0.021399  0.118082)
 40:    770.31   0.010554   53.34  0.004276  ( 0.023960 -0.059509 -0.012656)
 41:    774.14   0.156960  793.21  0.063272  (-0.001426  0.102217 -0.229831)
 42:    788.82   0.016115   81.44  0.006375  ( 0.018612 -0.069334 -0.034954)
 43:    828.91   0.037758  190.81  0.014215  ( 0.080663 -0.012048  0.086966)
 44:    875.14   0.057183  288.98  0.020391  ( 0.111991 -0.052512  0.071351)
 45:    889.41   0.044711  225.95  0.015688  ( 0.044110  0.096252  0.066914)
 46:    972.11   0.057063  288.37  0.018318  ( 0.005177  0.005920 -0.135116)
 47:   1005.38   0.031191  157.63  0.009681  (-0.029846  0.093176  0.010434)
 48:   1079.11   0.000114    0.57  0.000033  (-0.003439  0.004581 -0.000124)
 49:   1110.56   0.023244  117.46  0.006531  (-0.073844 -0.028278  0.016699)
 50:   1127.96   0.006979   35.27  0.001931  (-0.023381  0.034532  0.013845)
 51:   1137.92   0.061690  311.75  0.016918  ( 0.122733  0.040702  0.014064)
 52:   1159.23   0.026314  132.98  0.007084  ( 0.078000 -0.004497  0.031297)
 53:   1194.19   0.110714  559.50  0.028932  (-0.003880  0.064926 -0.157166)
 54:   1685.96   0.026036  131.58  0.004819  ( 0.014657 -0.065536 -0.017589)
 55:   1738.99   0.083880  423.89  0.015052  (-0.016128 -0.036163  0.116122)
 56:   1777.11   0.349307  1765.26  0.061339  ( 0.069032  0.080011 -0.223991)
 57:   1789.94   0.034833  176.03  0.006073  (-0.008674 -0.049513  0.059550)
 58:   1843.85   0.135414  684.33  0.022918  (-0.149175 -0.025310 -0.004931)
 59:   1880.56   0.396290  2002.69  0.065761  (-0.060119  0.233533  0.087230)
 60:   1919.46   0.109195  551.82  0.017753  (-0.024755  0.045630 -0.122710)
 61:   1955.23   0.077827  393.31  0.012422  ( 0.099535  0.032647 -0.038060)
 62:   2000.63   0.021130  106.78  0.003296  ( 0.054011 -0.001403  0.019410)
 63:   2006.20   0.000555    2.80  0.000086  (-0.001285  0.008449  0.003637)
 64:   2006.81   0.030829  155.80  0.004794  ( 0.014648 -0.026536  0.062252)
 65:   2009.82   0.004105   20.74  0.000637  (-0.005554 -0.002921 -0.024453)
 66:   2014.81   0.000081    0.41  0.000013  ( 0.003397  0.000975  0.000213)
 67:   2017.20   0.055219  279.06  0.008543  ( 0.085962  0.007089  0.033210)
 68:   2022.57   0.034245  173.06  0.005284  ( 0.065364  0.024904  0.019774)
 69:   2025.38   0.039222  198.21  0.006043  (-0.019268  0.070932  0.025312)
 70:   2026.32   0.018415   93.06  0.002836  ( 0.028031  0.031024 -0.032981)
 71:   2061.11   0.017427   88.07  0.002638  ( 0.029957 -0.006626  0.041196)

--------------------------
THERMOCHEMISTRY AT 298.15K
--------------------------

Temperature         ...   298.15 K
Pressure            ...     1.00 atm
Total Mass          ...   180.04 AMU
Quasi RRHO          ...     True
Cut-Off Frequency   ...     1.00 cm^-1

Throughout the following assumptions are being made:
  (1) The electronic state is orbitally nondegenerate
  (2) There are no thermally accessible electronically excited states
  (3) Hindered rotations indicated by low frequency modes are not
      treated as such but are treated as vibrations and this may
      cause some error
  (4) All equations used are the standard statistical mechanics
      equations for an ideal gas
  (5) All vibrations are strictly harmonic

freq.      21.11  E(vib)   ...       0.56
freq.      41.39  E(vib)   ...       0.54
freq.      50.81  E(vib)   ...       0.52
freq.      82.93  E(vib)   ...       0.48
freq.     105.37  E(vib)   ...       0.45
freq.     133.52  E(vib)   ...       0.42
freq.     139.31  E(vib)   ...       0.42
freq.     159.67  E(vib)   ...       0.39
freq.     179.44  E(vib)   ...       0.37
freq.     207.59  E(vib)   ...       0.34
freq.     231.35  E(vib)   ...       0.32
freq.     247.01  E(vib)   ...       0.31
freq.     273.54  E(vib)   ...       0.29
freq.     301.10  E(vib)   ...       0.26
freq.     331.93  E(vib)   ...       0.24
freq.     370.71  E(vib)   ...       0.21
freq.     373.69  E(vib)   ...       0.21
freq.     395.74  E(vib)   ...       0.20
freq.     407.08  E(vib)   ...       0.19
freq.     409.19  E(vib)   ...       0.19
freq.     426.09  E(vib)   ...       0.18
freq.     463.80  E(vib)   ...       0.16
freq.     487.52  E(vib)   ...       0.15
freq.     521.24  E(vib)   ...       0.13
freq.     538.48  E(vib)   ...       0.12
freq.     574.67  E(vib)   ...       0.11
freq.     595.34  E(vib)   ...       0.10
freq.     616.85  E(vib)   ...       0.09
freq.     689.56  E(vib)   ...       0.07
freq.     700.82  E(vib)   ...       0.07
freq.     717.62  E(vib)   ...       0.07
freq.     724.45  E(vib)   ...       0.06
freq.     729.57  E(vib)   ...       0.06
freq.     745.63  E(vib)   ...       0.06
freq.     770.31  E(vib)   ...       0.05
freq.     774.14  E(vib)   ...       0.05
freq.     788.82  E(vib)   ...       0.05
freq.     828.91  E(vib)   ...       0.04
freq.     875.14  E(vib)   ...       0.04
freq.     889.41  E(vib)   ...       0.04
freq.     972.11  E(vib)   ...       0.03
freq.    1005.38  E(vib)   ...       0.02
freq.    1079.11  E(vib)   ...       0.02
freq.    1110.56  E(vib)   ...       0.02
freq.    1127.96  E(vib)   ...       0.01
freq.    1137.92  E(vib)   ...       0.01
freq.    1159.23  E(vib)   ...       0.01
freq.    1194.19  E(vib)   ...       0.01
freq.    1685.96  E(vib)   ...       0.00
freq.    1738.99  E(vib)   ...       0.00
freq.    1777.11  E(vib)   ...       0.00
freq.    1789.94  E(vib)   ...       0.00
freq.    1843.85  E(vib)   ...       0.00
freq.    1880.56  E(vib)   ...       0.00
freq.    1919.46  E(vib)   ...       0.00
freq.    1955.23  E(vib)   ...       0.00
freq.    2000.63  E(vib)   ...       0.00
freq.    2006.20  E(vib)   ...       0.00
freq.    2006.81  E(vib)   ...       0.00
freq.    2009.82  E(vib)   ...       0.00
freq.    2014.81  E(vib)   ...       0.00
freq.    2017.20  E(vib)   ...       0.00
freq.    2022.57  E(vib)   ...       0.00
freq.    2025.38  E(vib)   ...       0.00
freq.    2026.32  E(vib)   ...       0.00
freq.    2061.11  E(vib)   ...       0.00

------------
INNER ENERGY
------------

The inner energy is: U= E(el) + E(ZPE) + E(vib) + E(rot) + E(trans)
    E(el)   - is the total energy from the electronic structure calculation
              = E(kin-el) + E(nuc-el) + E(el-el) + E(nuc-nuc)
    E(ZPE)  - the the zero temperature vibrational energy from the frequency calculation
    E(vib)  - the the finite temperature correction to E(ZPE) due to population
              of excited vibrational states
    E(rot)  - is the rotational thermal energy
    E(trans)- is the translational thermal energy

Summary of contributions to the inner energy U:
Electronic energy                ...  -1463.38599834 Eh
Zero point energy                ...      0.14008293 Eh      87.90 kcal/mol
Thermal vibrational correction   ...      0.01399577 Eh       8.78 kcal/mol
Thermal rotational correction    ...      0.00141627 Eh       0.89 kcal/mol
Thermal translational correction ...      0.00141627 Eh       0.89 kcal/mol
-----------------------------------------------------------------------
Total thermal energy                  -1463.22908710 Eh

Summary of corrections to the electronic energy:
(perhaps to be used in another calculation)
Total thermal correction                  0.01682832 Eh      10.56 kcal/mol
Non-thermal (ZPE) correction              0.14008293 Eh      87.90 kcal/mol
-----------------------------------------------------------------------
Total correction                          0.15691124 Eh      98.46 kcal/mol

--------
ENTHALPY
--------

The enthalpy is H = U + kB*T
                kB is Boltzmann's constant
Total thermal energy              ...  -1463.22908710 Eh
Thermal Enthalpy correction       ...      0.00094421 Eh       0.59 kcal/mol
-----------------------------------------------------------------------
Total Enthalpy                    ...  -1463.22814289 Eh

Note: Only C1 symmetry has been detected, increase convergence thresholds
      if your molecule has a higher symmetry. Symmetry factor of 1.0 is
      used for the rotational entropy correction.

Note: Rotational entropy computed according to Herzberg
Infrared and Raman Spectra, Chapter V,1, Van Nostrand Reinhold, 1945
Point Group:  C1, Symmetry Number:   1
Rotational constants in cm-1:     0.032385     0.014216     0.012284

Vibrational entropy computed according to the QRRHO of S. Grimme
Chem.Eur.J. 2012 18 9955 using a reference frequency of 100.0 cm-1

-------
ENTROPY
-------

The entropy contributions are T*S = T*(S(el)+S(vib)+S(rot)+S(trans))
     S(el)   - electronic entropy
     S(vib)  - vibrational entropy
     S(rot)  - rotational entropy
     S(trans)- translational entropy
The entropies will be listed as multiplied by the temperature to get
units of energy

Electronic entropy                ...      0.00000000 Eh      0.00 kcal/mol
Vibrational entropy               ...      0.02464759 Eh     15.47 kcal/mol
Rotational entropy                ...      0.01521502 Eh      9.55 kcal/mol
Translational entropy             ...      0.01970399 Eh     12.36 kcal/mol
-----------------------------------------------------------------------
Final entropy term                ...      0.05956659 Eh     37.38 kcal/mol

                             ****ORCA TERMINATED NORMALLY****
TOTAL RUN TIME: 0 days 0 hours 51 minutes 3 seconds 203 msec
