                         Program Version 6.1.0  -  RELEASE   -
|  1> # Geometry optimization for UiO-66-dehydrox SBU
|  2>
|  3> %pal nprocs 256 end
|  4>
|  5> ! PBE 	# functional used for the MOF calculations later (non-expensive)
|  6> ! RKS	# closed shell for SBU
|  7> ! D3  # better geometries at low cost
|  8> ! def2-SV(P) # Ahlrichs basis set triple zeta with core potentials and auxilarry basis set for coulomb integrals
|  9> ! gCP(DFT/SV(P)) # geometrical counter poise
| 10> ! Freq 	# Frequency analysis to check the stabiltity of the structures
| 11>
| 12> ! NoPop # population analysis not necessary
| 13>
| 14> ! RI 		# speed up calculation
| 15> ! DEFGRID2 # dense Grid
| 16> ! NormalSCF # tight SCF criteria as basis for Geom.-Opt.
| 17> ! SloppyOpt # tight convergence criteria for geometry optimizations
| 18>
| 19> ! SmallPrint
| 20>
| 21>
| 22> * xyzFile 0 1 start.xyz # no spin
| 23>
| 24>                          ****END OF INPUT****
 Total Charge           Charge          ....    0
 Multiplicity           Mult            ....    1
 Number of Electrons    NEL             ....  396
Dispersion correction           -0.130365124
FINAL SINGLE POINT ENERGY     -3000.558024034837
Dispersion correction             ... done (  0.1 sec)
Dispersion correction           -0.129689320
FINAL SINGLE POINT ENERGY     -3000.560240137879
Dispersion correction             ... done (  0.1 sec)
                    ***********************HURRAY********************

CARTESIAN COORDINATES (ANGSTROEM)
---------------------------------
  Zr    -0.176943    2.069929    1.477547
  Zr     0.176943   -2.069929   -1.477548
  Zr     1.733430   -1.136371    1.485265
  Zr    -1.733430    1.136371   -1.485265
  Zr     1.737755    1.031955   -1.555301
  Zr    -1.737755   -1.031955    1.555301
  O     -1.752977    0.785479    0.568884
  O      1.752977   -0.785479   -0.568884
  O     -0.136197   -1.918021    0.560666
  O      0.136197    1.918020   -0.560666
  O     -0.141023   -0.078265   -2.001664
  O      0.141023    0.078265    2.001664
  O     -1.485936    2.111179    3.274511
  O     -1.658897    3.682035    1.029464
  O      1.537895    2.098012    2.910474
  O      1.207876    3.802647    0.966004
  O     -1.207877   -3.802647   -0.966004
  O     -1.537895   -2.098012   -2.910475
  O      1.658897   -3.682035   -1.029463
  O      1.485936   -2.111179   -3.274511
  O      1.113484   -2.489078    3.152539
  O      2.455667    0.048453    3.288841
  O      2.621100   -3.099777    0.942284
  O      3.748523   -0.273182    1.049326
  O     -3.748523    0.273181   -1.049326
  O     -2.621101    3.099777   -0.942283
  O     -2.455666   -0.048453   -3.288841
  O     -1.113484    2.489078   -3.152538
  O      1.151452    2.360904   -3.238684
  O      2.576102    2.871496   -0.598553
  O      2.452105   -0.059037   -3.369174
  O      3.919046    0.677096   -1.013321
  O     -3.919046   -0.677096    1.013321
  O     -2.452105    0.059037    3.369174
  O     -2.576102   -2.871496    0.598554
  O     -1.151452   -2.360904    3.238685
  C     -2.228228    1.227183    3.807384
  C     -2.462414    3.858569    0.065253
  C      2.176062    1.239071    3.608195
  C      2.122850    3.844061    0.094839
  C     -2.122850   -3.844061   -0.094839
  C     -2.176061   -1.239071   -3.608196
  C      2.462413   -3.858570   -0.065253
  C      2.228228   -1.227183   -3.807384
  C     -0.021046   -2.791268    3.630259
  C      4.389876    0.107755    0.012232
  C     -4.389876   -0.107755   -0.012232
  C      0.021046    2.791269   -3.630258
  H     -2.543742   -1.593192   -4.616721
  H      3.105100   -4.786084   -0.103487
  H      2.543743    1.593193    4.616720
  H     -3.105101    4.786083    0.103488
  H      2.741368   -1.514228   -4.771250
  H      0.030274    3.518167   -4.494154
  H      2.608601    4.849258   -0.082302
  H      5.505813   -0.071762    0.024868
  H     -2.608601   -4.849259    0.082302
  H     -5.505813    0.071762   -0.024868
  H     -2.741368    1.514228    4.771250
  H     -0.030274   -3.518166    4.494155

 Multiplicity           Mult            ....    1
 Number of Electrons    NEL             ....  396
 Basis Dimension        Dim             ....  756

ORBITAL ENERGIES
----------------

  NO   OCC          E(Eh)            E(eV)
   0   2.0000     -18.788805      -511.2694
   1   2.0000     -18.788785      -511.2688
   2   2.0000     -18.788666      -511.2656
   3   2.0000     -18.788645      -511.2650
   4   2.0000     -18.788631      -511.2646
   5   2.0000     -18.788612      -511.2641
   6   2.0000     -18.787857      -511.2436
   7   2.0000     -18.787838      -511.2431
   8   2.0000     -18.787759      -511.2409
   9   2.0000     -18.787740      -511.2404
  10   2.0000     -18.787727      -511.2400
  11   2.0000     -18.787707      -511.2395
  12   2.0000     -18.782616      -511.1010
  13   2.0000     -18.782592      -511.1003
  14   2.0000     -18.782550      -511.0992
  15   2.0000     -18.782535      -511.0988
  16   2.0000     -18.782439      -511.0962
  17   2.0000     -18.782436      -511.0961
  18   2.0000     -18.782412      -511.0954
  19   2.0000     -18.782403      -511.0952
  20   2.0000     -18.782397      -511.0950
  21   2.0000     -18.782380      -511.0945
  22   2.0000     -18.782230      -511.0905
  23   2.0000     -18.782230      -511.0905
  24   2.0000     -18.754419      -510.3337
  25   2.0000     -18.754412      -510.3335
  26   2.0000     -18.754318      -510.3309
  27   2.0000     -18.754304      -510.3306
  28   2.0000     -18.754215      -510.3281
  29   2.0000     -18.754196      -510.3276
  30   2.0000     -10.039180      -273.1800
  31   2.0000     -10.039177      -273.1799
  32   2.0000     -10.039153      -273.1792
  33   2.0000     -10.039150      -273.1792
  34   2.0000     -10.039128      -273.1786
  35   2.0000     -10.039120      -273.1783
  36   2.0000     -10.032948      -273.0104
  37   2.0000     -10.032939      -273.0101
  38   2.0000     -10.032936      -273.0101
  39   2.0000     -10.032931      -273.0099
  40   2.0000     -10.032779      -273.0058
  41   2.0000     -10.032773      -273.0056
  42   2.0000      -2.048102       -55.7317
  43   2.0000      -2.047668       -55.7199
  44   2.0000      -2.047626       -55.7187
  45   2.0000      -2.047309       -55.7101
  46   2.0000      -2.047275       -55.7092
  47   2.0000      -2.047232       -55.7080
  48   2.0000      -1.231753       -33.5177
  49   2.0000      -1.228139       -33.4194
  50   2.0000      -1.228106       -33.4185
  51   2.0000      -1.226265       -33.3684
  52   2.0000      -1.225137       -33.3377
  53   2.0000      -1.225118       -33.3371
  54   2.0000      -1.221973       -33.2516
  55   2.0000      -1.220853       -33.2211
  56   2.0000      -1.220812       -33.2200
  57   2.0000      -1.220703       -33.2170
  58   2.0000      -1.220686       -33.2165
  59   2.0000      -1.218790       -33.1650
  60   2.0000      -1.216745       -33.1093
  61   2.0000      -1.216724       -33.1088
  62   2.0000      -1.215541       -33.0765
  63   2.0000      -1.215524       -33.0761
  64   2.0000      -1.215484       -33.0750
  65   2.0000      -1.215435       -33.0737
  66   2.0000      -0.996820       -27.1248
  67   2.0000      -0.995273       -27.0828
  68   2.0000      -0.995235       -27.0817
  69   2.0000      -0.994684       -27.0667
  70   2.0000      -0.994663       -27.0662
  71   2.0000      -0.993923       -27.0460
  72   2.0000      -0.989132       -26.9157
  73   2.0000      -0.988669       -26.9031
  74   2.0000      -0.986709       -26.8497
  75   2.0000      -0.986557       -26.8456
  76   2.0000      -0.986518       -26.8445
  77   2.0000      -0.986371       -26.8405
  78   2.0000      -0.915796       -24.9201
  79   2.0000      -0.915312       -24.9069
  80   2.0000      -0.915282       -24.9061
  81   2.0000      -0.914070       -24.8731
  82   2.0000      -0.914051       -24.8726
  83   2.0000      -0.912852       -24.8400
  84   2.0000      -0.909240       -24.7417
  85   2.0000      -0.909091       -24.7376
  86   2.0000      -0.908621       -24.7248
  87   2.0000      -0.908477       -24.7209
  88   2.0000      -0.905749       -24.6467
  89   2.0000      -0.905669       -24.6445
  90   2.0000      -0.826286       -22.4844
  91   2.0000      -0.817148       -22.2357
  92   2.0000      -0.817089       -22.2341
  93   2.0000      -0.807181       -21.9645
  94   2.0000      -0.807105       -21.9624
  95   2.0000      -0.804134       -21.8816
  96   2.0000      -0.558363       -15.1938
  97   2.0000      -0.556447       -15.1417
  98   2.0000      -0.556400       -15.1404
  99   2.0000      -0.554213       -15.0809
 100   2.0000      -0.552722       -15.0403
 101   2.0000      -0.552700       -15.0397
 102   2.0000      -0.550654       -14.9841
 103   2.0000      -0.549337       -14.9482
 104   2.0000      -0.544373       -14.8131
 105   2.0000      -0.544266       -14.8102
 106   2.0000      -0.543617       -14.7926
 107   2.0000      -0.543487       -14.7890
 108   2.0000      -0.470018       -12.7899
 109   2.0000      -0.469945       -12.7879
 110   2.0000      -0.469519       -12.7763
 111   2.0000      -0.466629       -12.6976
 112   2.0000      -0.466525       -12.6948
 113   2.0000      -0.464556       -12.6412
 114   2.0000      -0.464506       -12.6398
 115   2.0000      -0.464486       -12.6393
 116   2.0000      -0.460783       -12.5386
 117   2.0000      -0.460623       -12.5342
 118   2.0000      -0.459591       -12.5061
 119   2.0000      -0.457008       -12.4358
 120   2.0000      -0.455494       -12.3946
 121   2.0000      -0.454834       -12.3767
 122   2.0000      -0.454798       -12.3757
 123   2.0000      -0.454331       -12.3630
 124   2.0000      -0.454281       -12.3616
 125   2.0000      -0.454185       -12.3590
 126   2.0000      -0.442072       -12.0294
 127   2.0000      -0.441959       -12.0263
 128   2.0000      -0.441409       -12.0113
 129   2.0000      -0.441281       -12.0079
 130   2.0000      -0.440567       -11.9884
 131   2.0000      -0.440242       -11.9796
 132   2.0000      -0.421440       -11.4680
 133   2.0000      -0.416495       -11.3334
 134   2.0000      -0.416445       -11.3320
 135   2.0000      -0.415891       -11.3170
 136   2.0000      -0.406295       -11.0559
 137   2.0000      -0.406223       -11.0539
 138   2.0000      -0.404980       -11.0201
 139   2.0000      -0.400009       -10.8848
 140   2.0000      -0.400004       -10.8847
 141   2.0000      -0.399895       -10.8817
 142   2.0000      -0.397531       -10.8174
 143   2.0000      -0.397412       -10.8141
 144   2.0000      -0.368293       -10.0218
 145   2.0000      -0.363480        -9.8908
 146   2.0000      -0.362887        -9.8747
 147   2.0000      -0.362853        -9.8737
 148   2.0000      -0.355441        -9.6720
 149   2.0000      -0.355103        -9.6628
 150   2.0000      -0.355073        -9.6620
 151   2.0000      -0.330613        -8.9964
 152   2.0000      -0.330499        -8.9933
 153   2.0000      -0.327597        -8.9144
 154   2.0000      -0.326385        -8.8814
 155   2.0000      -0.326224        -8.8770
 156   2.0000      -0.318554        -8.6683
 157   2.0000      -0.318472        -8.6661
 158   2.0000      -0.309461        -8.4209
 159   2.0000      -0.308030        -8.3819
 160   2.0000      -0.302900        -8.2423
 161   2.0000      -0.302827        -8.2403
 162   2.0000      -0.300030        -8.1642
 163   2.0000      -0.296073        -8.0566
 164   2.0000      -0.296058        -8.0561
 165   2.0000      -0.295705        -8.0465
 166   2.0000      -0.292255        -7.9527
 167   2.0000      -0.292117        -7.9489
 168   2.0000      -0.287277        -7.8172
 169   2.0000      -0.287200        -7.8151
 170   2.0000      -0.286954        -7.8084
 171   2.0000      -0.285957        -7.7813
 172   2.0000      -0.283432        -7.7126
 173   2.0000      -0.281955        -7.6724
 174   2.0000      -0.281939        -7.6719
 175   2.0000      -0.279191        -7.5972
 176   2.0000      -0.279147        -7.5960
 177   2.0000      -0.279098        -7.5947
 178   2.0000      -0.278043        -7.5659
 179   2.0000      -0.278028        -7.5655
 180   2.0000      -0.277029        -7.5384
 181   2.0000      -0.272822        -7.4239
 182   2.0000      -0.272305        -7.4098
 183   2.0000      -0.272273        -7.4089
 184   2.0000      -0.269804        -7.3417
 185   2.0000      -0.268983        -7.3194
 186   2.0000      -0.268831        -7.3153
 187   2.0000      -0.268283        -7.3004
 188   2.0000      -0.268188        -7.2978
 189   2.0000      -0.266146        -7.2422
 190   2.0000      -0.265969        -7.2374
 191   2.0000      -0.264569        -7.1993
 192   2.0000      -0.264544        -7.1986
 193   2.0000      -0.257561        -7.0086
 194   2.0000      -0.257515        -7.0073
 195   2.0000      -0.233823        -6.3626
 196   2.0000      -0.233662        -6.3583
 197   2.0000      -0.229918        -6.2564
 198   0.0000      -0.117628        -3.2008
 199   0.0000      -0.115185        -3.1343
 200   0.0000      -0.088781        -2.4159
 201   0.0000      -0.088706        -2.4138
 202   0.0000      -0.085081        -2.3152

-------
TIMINGS
-------

Dispersion correction           -0.129151356
FINAL SINGLE POINT ENERGY     -3000.560784255904

DIPOLE MOMENT
-------------

Method             : SCF
Type of density    : Electron Density
Multiplicity       :   1
Irrep              :   0
Energy             : -3000.7610081762250047 Eh
Basis              : AO
                                X                 Y                 Z
Electronic contribution:      0.000002953      -0.000012610      -0.000008719
Nuclear contribution   :     -0.000001309       0.000013189       0.000008754
                        -----------------------------------------
Total Dipole Moment    :      0.000001644       0.000000579       0.000000034
                        -----------------------------------------
Magnitude (a.u.)       :      0.000001744
Magnitude (Debye)      :      0.000004432

VIBRATIONAL FREQUENCIES
-----------------------

Scaling factor for frequencies =  1.000000000  (already applied!)

     0:       0.00 cm**-1
     1:       0.00 cm**-1
     2:       0.00 cm**-1
     3:       0.00 cm**-1
     4:       0.00 cm**-1
     5:       0.00 cm**-1
     6:      43.21 cm**-1
     7:      45.85 cm**-1
     8:      59.96 cm**-1
     9:      62.46 cm**-1
    10:      66.40 cm**-1
    11:      72.51 cm**-1
    12:      80.74 cm**-1
    13:      81.45 cm**-1
    14:      97.70 cm**-1
    15:      98.57 cm**-1
    16:      99.33 cm**-1
    17:      99.44 cm**-1
    18:     105.60 cm**-1
    19:     106.10 cm**-1
    20:     109.36 cm**-1
    21:     109.58 cm**-1
    22:     118.28 cm**-1
    23:     126.06 cm**-1
    24:     130.72 cm**-1
    25:     136.95 cm**-1
    26:     152.32 cm**-1
    27:     152.35 cm**-1
    28:     153.24 cm**-1
    29:     153.48 cm**-1
    30:     158.18 cm**-1
    31:     158.74 cm**-1
    32:     161.94 cm**-1
    33:     162.45 cm**-1
    34:     164.90 cm**-1
    35:     167.25 cm**-1
    36:     171.90 cm**-1
    37:     174.71 cm**-1
    38:     175.64 cm**-1
    39:     188.47 cm**-1
    40:     188.96 cm**-1
    41:     190.36 cm**-1
    42:     193.43 cm**-1
    43:     194.65 cm**-1
    44:     195.32 cm**-1
    45:     207.42 cm**-1
    46:     210.58 cm**-1
    47:     214.16 cm**-1
    48:     214.58 cm**-1
    49:     227.78 cm**-1
    50:     228.55 cm**-1
    51:     234.46 cm**-1
    52:     234.89 cm**-1
    53:     246.84 cm**-1
    54:     263.46 cm**-1
    55:     265.51 cm**-1
    56:     266.06 cm**-1
    57:     267.65 cm**-1
    58:     268.12 cm**-1
    59:     270.94 cm**-1
    60:     273.80 cm**-1
    61:     276.56 cm**-1
    62:     277.33 cm**-1
    63:     277.85 cm**-1
    64:     278.73 cm**-1
    65:     278.91 cm**-1
    66:     287.63 cm**-1
    67:     288.08 cm**-1
    68:     293.08 cm**-1
    69:     293.21 cm**-1
    70:     297.56 cm**-1
    71:     300.58 cm**-1
    72:     308.59 cm**-1
    73:     308.98 cm**-1
    74:     313.32 cm**-1
    75:     314.28 cm**-1
    76:     314.52 cm**-1
    77:     318.71 cm**-1
    78:     320.09 cm**-1
    79:     320.28 cm**-1
    80:     327.01 cm**-1
    81:     327.47 cm**-1
    82:     327.99 cm**-1
    83:     343.49 cm**-1
    84:     343.98 cm**-1
    85:     354.97 cm**-1
    86:     355.17 cm**-1
    87:     369.80 cm**-1
    88:     372.56 cm**-1
    89:     391.24 cm**-1
    90:     396.49 cm**-1
    91:     405.40 cm**-1
    92:     407.17 cm**-1
    93:     407.59 cm**-1
    94:     422.40 cm**-1
    95:     422.83 cm**-1
    96:     425.83 cm**-1
    97:     426.52 cm**-1
    98:     478.65 cm**-1
    99:     482.05 cm**-1
   100:     482.45 cm**-1
   101:     534.67 cm**-1
   102:     543.29 cm**-1
   103:     626.74 cm**-1
   104:     679.04 cm**-1
   105:     679.62 cm**-1
   106:     687.51 cm**-1
   107:     688.49 cm**-1
   108:     736.28 cm**-1
   109:     736.42 cm**-1
   110:     736.67 cm**-1
   111:     736.75 cm**-1
   112:     737.10 cm**-1
   113:     738.92 cm**-1
   114:     739.39 cm**-1
   115:     739.64 cm**-1
   116:     740.19 cm**-1
   117:     740.31 cm**-1
   118:     741.53 cm**-1
   119:     741.79 cm**-1
   120:    1002.65 cm**-1
   121:    1002.68 cm**-1
   122:    1003.03 cm**-1
   123:    1003.05 cm**-1
   124:    1004.54 cm**-1
   125:    1004.62 cm**-1
   126:    1006.93 cm**-1
   127:    1007.10 cm**-1
   128:    1007.33 cm**-1
   129:    1007.79 cm**-1
   130:    1007.95 cm**-1
   131:    1008.23 cm**-1
   132:    1346.78 cm**-1
   133:    1346.80 cm**-1
   134:    1347.12 cm**-1
   135:    1347.14 cm**-1
   136:    1347.58 cm**-1
   137:    1347.83 cm**-1
   138:    1353.92 cm**-1
   139:    1354.44 cm**-1
   140:    1354.65 cm**-1
   141:    1355.63 cm**-1
   142:    1355.82 cm**-1
   143:    1356.44 cm**-1
   144:    1361.83 cm**-1
   145:    1361.93 cm**-1
   146:    1361.98 cm**-1
   147:    1362.08 cm**-1
   148:    1363.88 cm**-1
   149:    1364.29 cm**-1
   150:    1365.24 cm**-1
   151:    1366.88 cm**-1
   152:    1367.05 cm**-1
   153:    1370.93 cm**-1
   154:    1371.21 cm**-1
   155:    1379.17 cm**-1
   156:    1541.00 cm**-1
   157:    1550.85 cm**-1
   158:    1561.12 cm**-1
   159:    1561.16 cm**-1
   160:    1567.50 cm**-1
   161:    1573.49 cm**-1
   162:    1573.86 cm**-1
   163:    1627.68 cm**-1
   164:    1627.90 cm**-1
   165:    1633.31 cm**-1
   166:    1633.77 cm**-1
   167:    1634.11 cm**-1
   168:    2879.73 cm**-1
   169:    2879.76 cm**-1
   170:    2879.96 cm**-1
   171:    2879.98 cm**-1
   172:    2881.02 cm**-1
   173:    2881.83 cm**-1
   174:    2896.16 cm**-1
   175:    2896.37 cm**-1
   176:    2896.48 cm**-1
   177:    2897.04 cm**-1
   178:    2897.13 cm**-1
   179:    2898.52 cm**-1

IR SPECTRUM
-----------

 Mode   freq       eps      Int      T**2         TX        TY        TZ
       cm**-1   L/(mol*cm) km/mol    a.u.
----------------------------------------------------------------------------
  6:     43.21   0.000021    0.11  0.000155  ( 0.002054  0.004726 -0.011326)
  7:     45.85   0.000020    0.10  0.000136  (-0.006634  0.008842  0.003731)
  8:     59.96   0.000000    0.00  0.000000  ( 0.000000  0.000000  0.000000)
  9:     62.46   0.000000    0.00  0.000000  (-0.000001  0.000001 -0.000000)
 10:     66.40   0.000000    0.00  0.000000  ( 0.000000 -0.000001  0.000000)
 11:     72.51   0.000002    0.01  0.000007  (-0.002214 -0.001322 -0.000678)
 12:     80.74   0.000019    0.09  0.000072  ( 0.003145 -0.006877  0.003848)
 13:     81.45   0.000017    0.09  0.000066  ( 0.003999 -0.002094 -0.006728)
 14:     97.70   0.000000    0.00  0.000000  ( 0.000001 -0.000000 -0.000000)
 15:     98.57   0.000000    0.00  0.000000  (-0.000002  0.000001 -0.000000)
 16:     99.33   0.000000    0.00  0.000000  ( 0.000002  0.000001  0.000001)
 17:     99.44   0.000016    0.08  0.000049  ( 0.005558  0.003084  0.002925)
 18:    105.60   0.000164    0.83  0.000486  (-0.010903  0.005118  0.018453)
 19:    106.10   0.000155    0.78  0.000457  (-0.006492  0.018358 -0.008806)
 20:    109.36   0.000000    0.00  0.000000  ( 0.000000 -0.000000  0.000001)
 21:    109.58   0.000000    0.00  0.000000  ( 0.000000 -0.000000 -0.000000)
 22:    118.28   0.000000    0.00  0.000000  (-0.000001  0.000001 -0.000001)
 23:    126.06   0.000000    0.00  0.000000  (-0.000001  0.000001 -0.000001)
 24:    130.72   0.000028    0.14  0.000067  ( 0.006625  0.004129  0.002376)
 25:    136.95   0.000000    0.00  0.000001  (-0.000053 -0.000436  0.000676)
 26:    152.32   0.000000    0.00  0.000000  (-0.000002  0.000004 -0.000004)
 27:    152.35   0.000000    0.00  0.000000  (-0.000004  0.000006 -0.000004)
 28:    153.24   0.000912    4.61  0.001857  ( 0.024079 -0.034817 -0.008032)
 29:    153.48   0.000919    4.64  0.001868  (-0.008404 -0.014081  0.039987)
 30:    158.18   0.000000    0.00  0.000000  (-0.000002 -0.000000  0.000000)
 31:    158.74   0.000000    0.00  0.000000  ( 0.000002  0.000001  0.000000)
 32:    161.94   0.000149    0.75  0.000286  (-0.004072  0.014617 -0.007496)
 33:    162.45   0.000150    0.76  0.000288  (-0.009848  0.003919  0.013235)
 34:    164.90   0.000000    0.00  0.000000  (-0.000001 -0.000000  0.000000)
 35:    167.25   0.001568    7.93  0.002926  (-0.043463 -0.025790 -0.019295)
 36:    171.90   0.000067    0.34  0.000122  (-0.008383 -0.005509 -0.004589)
 37:    174.71   0.000000    0.00  0.000000  (-0.000001  0.000000 -0.000000)
 38:    175.64   0.000000    0.00  0.000000  ( 0.000000 -0.000000 -0.000000)
 39:    188.47   0.000000    0.00  0.000000  (-0.000000  0.000000  0.000000)
 40:    188.96   0.000000    0.00  0.000000  ( 0.000003 -0.000003  0.000001)
 41:    190.36   0.000000    0.00  0.000000  (-0.000001  0.000001 -0.000000)
 42:    193.43   0.000451    2.28  0.000727  ( 0.023118  0.009232  0.010373)
 43:    194.65   0.000166    0.84  0.000266  ( 0.000589 -0.014384  0.007680)
 44:    195.32   0.000180    0.91  0.000288  (-0.008324  0.007889  0.012498)
 45:    207.42   0.000238    1.20  0.000359  ( 0.015083  0.008581  0.007585)
 46:    210.58   0.000000    0.00  0.000000  ( 0.000000  0.000000 -0.000001)
 47:    214.16   0.002963   14.98  0.004318  ( 0.031856 -0.057206  0.005555)
 48:    214.58   0.002902   14.67  0.004221  (-0.022231 -0.007430  0.060592)
 49:    227.78   0.000000    0.00  0.000000  ( 0.000000  0.000000 -0.000000)
 50:    228.55   0.000000    0.00  0.000000  (-0.000000 -0.000000  0.000000)
 51:    234.46   0.000334    1.69  0.000444  (-0.005854 -0.004689  0.019690)
 52:    234.89   0.000296    1.49  0.000393  ( 0.010626 -0.016609 -0.001988)
 53:    246.84   0.000000    0.00  0.000000  ( 0.000001 -0.000001  0.000000)
 54:    263.46   0.000648    3.28  0.000768  ( 0.020971  0.013652  0.011912)
 55:    265.51   0.000000    0.00  0.000000  ( 0.000000  0.000000 -0.000000)
 56:    266.06   0.000000    0.00  0.000000  (-0.000000  0.000001 -0.000000)
 57:    267.65   0.000594    3.00  0.000693  (-0.015031  0.002381  0.021483)
 58:    268.12   0.000616    3.11  0.000717  (-0.008856  0.022675 -0.011168)
 59:    270.94   0.000000    0.00  0.000000  ( 0.000001 -0.000000 -0.000000)
 60:    273.80   0.000000    0.00  0.000000  ( 0.000002 -0.000002  0.000000)
 61:    276.56   0.000000    0.00  0.000000  (-0.000002  0.000002  0.000000)
 62:    277.33   0.000000    0.00  0.000000  (-0.000001  0.000001 -0.000000)
 63:    277.85   0.000170    0.86  0.000191  ( 0.002693 -0.006217  0.012053)
 64:    278.73   0.001278    6.46  0.001431  ( 0.020210 -0.008742 -0.030760)
 65:    278.91   0.001091    5.51  0.001221  ( 0.011679 -0.030125  0.013290)
 66:    287.63   0.000000    0.00  0.000000  (-0.000002  0.000002 -0.000001)
 67:    288.08   0.000000    0.00  0.000000  (-0.000001  0.000000 -0.000000)
 68:    293.08   0.001945    9.83  0.002071  (-0.001351  0.028661 -0.035324)
 69:    293.21   0.001924    9.72  0.002048  ( 0.026408 -0.028512 -0.023188)
 70:    297.56   0.000000    0.00  0.000000  (-0.000002 -0.000001  0.000000)
 71:    300.58   0.000003    0.01  0.000003  ( 0.001185 -0.001184  0.000264)
 72:    308.59   0.002106   10.64  0.002129  (-0.020318  0.040091 -0.010454)
 73:    308.98   0.002072   10.47  0.002092  ( 0.020076 -0.003523 -0.040952)
 74:    313.32   0.000000    0.00  0.000000  (-0.000000  0.000000 -0.000000)
 75:    314.28   0.000000    0.00  0.000000  (-0.000004 -0.000001 -0.000001)
 76:    314.52   0.000000    0.00  0.000000  (-0.000011  0.000001 -0.000003)
 77:    318.71   0.021964  111.00  0.021506  (-0.117522 -0.071545 -0.050750)
 78:    320.09   0.000000    0.00  0.000000  ( 0.000010  0.000012  0.000006)
 79:    320.28   0.000000    0.00  0.000000  ( 0.000007  0.000008  0.000004)
 80:    327.01   0.014902   75.31  0.014221  ( 0.012371 -0.082825  0.084897)
 81:    327.47   0.014227   71.90  0.013557  (-0.072032  0.059311  0.069649)
 82:    327.99   0.001147    5.80  0.001091  (-0.008721 -0.026103 -0.018276)
 83:    343.49   0.000000    0.00  0.000000  ( 0.000001 -0.000002  0.000000)
 84:    343.98   0.000000    0.00  0.000000  (-0.000002  0.000008 -0.000002)
 85:    354.97   0.030165  152.44  0.026519  (-0.086578  0.052847  0.127399)
 86:    355.17   0.029928  151.24  0.026296  ( 0.044654 -0.130675  0.085007)
 87:    369.80   0.000000    0.00  0.000000  ( 0.000001 -0.000002  0.000001)
 88:    372.56   0.000009    0.04  0.000007  ( 0.001628  0.000086  0.002146)
 89:    391.24   0.089692  453.27  0.071540  ( 0.215340  0.129791  0.091231)
 90:    396.49   0.000000    0.00  0.000000  (-0.000003 -0.000002  0.000001)
 91:    405.40   0.000000    0.00  0.000000  (-0.000001 -0.000000  0.000003)
 92:    407.17   0.045068  227.75  0.034541  (-0.109269  0.130685  0.074314)
 93:    407.59   0.045024  227.53  0.034471  ( 0.007465  0.096309 -0.158557)
 94:    422.40   0.000000    0.00  0.000000  (-0.000000 -0.000000  0.000000)
 95:    422.83   0.000000    0.00  0.000000  (-0.000000 -0.000001  0.000000)
 96:    425.83   0.000000    0.00  0.000000  ( 0.000000 -0.000000 -0.000000)
 97:    426.52   0.000000    0.00  0.000000  (-0.000000  0.000000 -0.000000)
 98:    478.65   0.000000    0.00  0.000000  (-0.000000 -0.000000  0.000000)
 99:    482.05   0.048352  244.35  0.031301  ( 0.033310 -0.135164  0.109191)
100:    482.45   0.048378  244.48  0.031292  (-0.100022  0.076251  0.124393)
101:    534.67   0.106842  539.94  0.062359  (-0.201030 -0.120262 -0.086506)
102:    543.29   0.000000    0.00  0.000000  ( 0.000000  0.000000  0.000000)
103:    626.74   0.000650    3.29  0.000324  (-0.015825 -0.005869 -0.006244)
104:    679.04   0.109504  553.39  0.050324  ( 0.108414 -0.195481  0.018916)
105:    679.62   0.109646  554.11  0.050347  ( 0.076404  0.022081 -0.209813)
106:    687.51   0.000000    0.00  0.000000  ( 0.000000 -0.000000 -0.000000)
107:    688.49   0.000000    0.00  0.000000  ( 0.000000 -0.000001 -0.000000)
108:    736.28   0.000029    0.15  0.000012  (-0.002935 -0.000597 -0.001821)
109:    736.42   0.000000    0.00  0.000000  ( 0.000005 -0.000002 -0.000011)
110:    736.67   0.009134   46.16  0.003869  ( 0.003328  0.036474 -0.050276)
111:    736.75   0.000000    0.00  0.000000  ( 0.000009 -0.000012 -0.000004)
112:    737.10   0.009108   46.03  0.003856  (-0.039760  0.041862  0.022862)
113:    738.92   0.000000    0.00  0.000000  (-0.000003 -0.000002  0.000006)
114:    739.39   0.000000    0.00  0.000000  ( 0.000001  0.000003 -0.000003)
115:    739.64   0.000000    0.00  0.000000  (-0.000000 -0.000005  0.000004)
116:    740.19   0.004852   24.52  0.002046  ( 0.021311 -0.036606 -0.015860)
117:    740.31   0.005206   26.31  0.002194  (-0.015599 -0.021093  0.038810)
118:    741.53   0.009575   48.39  0.004029  ( 0.049627  0.025523  0.030252)
119:    741.79   0.000000    0.00  0.000000  ( 0.000002  0.000001  0.000001)
120:   1002.65   0.000000    0.00  0.000000  ( 0.000002 -0.000003 -0.000003)
121:   1002.68   0.000150    0.76  0.000047  (-0.003233  0.003810  0.004654)
122:   1003.03   0.000000    0.00  0.000000  ( 0.000000  0.000001 -0.000002)
123:   1003.05   0.000150    0.76  0.000047  ( 0.000182  0.005405 -0.004188)
124:   1004.54   0.000188    0.95  0.000058  ( 0.006431  0.002536  0.003267)
125:   1004.62   0.000000    0.00  0.000000  (-0.000000 -0.000000 -0.000000)
126:   1006.93   0.000000    0.00  0.000000  (-0.000000  0.000000  0.000000)
127:   1007.10   0.000000    0.00  0.000000  ( 0.000005 -0.000071 -0.000029)
128:   1007.33   0.000000    0.00  0.000000  ( 0.000075 -0.000084 -0.000266)
129:   1007.79   0.000000    0.00  0.000000  (-0.000000  0.000000  0.000000)
130:   1007.95   0.000000    0.00  0.000000  (-0.000000 -0.000000 -0.000000)
131:   1008.23   0.000001    0.00  0.000000  (-0.000428 -0.000250 -0.000144)
132:   1346.78   0.000000    0.00  0.000000  (-0.000012  0.000081  0.000007)
133:   1346.80   0.036301  183.45  0.008411  ( 0.009786 -0.090753 -0.008906)
134:   1347.12   0.000000    0.00  0.000000  (-0.000066 -0.000025  0.000244)
135:   1347.14   0.031811  160.76  0.007369  ( 0.020293  0.007828 -0.083042)
136:   1347.58   0.076596  387.09  0.017738  (-0.118873 -0.043207 -0.041713)
137:   1347.83   0.000000    0.00  0.000000  (-0.000027 -0.000009 -0.000007)
138:   1353.92   0.000000    0.00  0.000000  ( 0.000003 -0.000002 -0.000004)
139:   1354.44   0.022916  115.81  0.005280  ( 0.024532  0.006184 -0.068116)
140:   1354.65   0.021733  109.83  0.005007  (-0.030175  0.063588 -0.007251)
141:   1355.63   0.000000    0.00  0.000000  (-0.000002  0.000001  0.000000)
142:   1355.82   0.000000    0.00  0.000000  (-0.000001 -0.000002  0.000000)
143:   1356.44   0.014264   72.09  0.003282  (-0.049620 -0.021346 -0.019077)
144:   1361.83   0.004805   24.28  0.001101  (-0.016095 -0.002175  0.028936)
145:   1361.93   0.005002   25.28  0.001146  (-0.013595  0.030505 -0.005539)
146:   1361.98   0.000000    0.00  0.000000  ( 0.000001 -0.000002 -0.000000)
147:   1362.08   0.000000    0.00  0.000000  ( 0.000002 -0.000004  0.000001)
148:   1363.88   0.000000    0.00  0.000000  ( 0.000005  0.000003  0.000002)
149:   1364.29   0.078723  397.84  0.018007  ( 0.107660  0.064882  0.046975)
150:   1365.24   0.000594    3.00  0.000136  (-0.006578 -0.008792 -0.003896)
151:   1366.88   0.000000    0.00  0.000000  ( 0.000001 -0.000000 -0.000001)
152:   1367.05   0.000000    0.00  0.000000  ( 0.000001 -0.000000 -0.000000)
153:   1370.93   0.160941  813.33  0.036635  ( 0.061236  0.026382 -0.179413)
154:   1371.21   0.161534  816.33  0.036762  ( 0.096237 -0.165660  0.007587)
155:   1379.17   0.000000    0.00  0.000000  (-0.000000  0.000000 -0.000001)
156:   1541.00   0.000000    0.00  0.000000  ( 0.000000 -0.000000  0.000000)
157:   1550.85   0.001054    5.32  0.000212  ( 0.012171  0.006480  0.004675)
158:   1561.12   0.002884   14.57  0.000576  ( 0.007052  0.004339 -0.022537)
159:   1561.16   0.003001   15.16  0.000600  (-0.012099  0.021272  0.000962)
160:   1567.50   0.000000    0.00  0.000000  (-0.000000  0.000000 -0.000000)
161:   1573.49   0.000000    0.00  0.000000  ( 0.000000 -0.000000  0.000000)
162:   1573.86   0.000000    0.00  0.000000  ( 0.000000  0.000000  0.000000)
163:   1627.68   0.331432  1674.92  0.063543  (-0.148122  0.127058  0.159561)
164:   1627.90   0.331916  1677.37  0.063627  (-0.029112  0.182074 -0.172130)
165:   1633.31   0.271727  1373.20  0.051917  (-0.182143 -0.107622 -0.084607)
166:   1633.77   0.000000    0.00  0.000000  (-0.000007 -0.000005 -0.000004)
167:   1634.11   0.000000    0.00  0.000000  (-0.000007 -0.000002 -0.000004)
168:   2879.73   0.000001    0.00  0.000000  ( 0.000060 -0.000247  0.000070)
169:   2879.76   0.022526  113.84  0.002441  ( 0.012565 -0.045955  0.013088)
170:   2879.96   0.000000    0.00  0.000000  (-0.000006 -0.000000 -0.000005)
171:   2879.98   0.022847  115.46  0.002476  (-0.030757  0.001219  0.039091)
172:   2881.02   0.078881  398.63  0.008544  ( 0.073151  0.041859  0.037960)
173:   2881.83   0.000000    0.00  0.000000  (-0.000005 -0.000004  0.000000)
174:   2896.16   0.000557    2.82  0.000060  (-0.007362 -0.000012  0.002414)
175:   2896.37   0.000000    0.00  0.000000  (-0.000009  0.000027 -0.000010)
176:   2896.48   0.000000    0.00  0.000000  ( 0.000004  0.000003 -0.000005)
177:   2897.04   0.065870  332.88  0.007095  (-0.028799  0.072014 -0.032864)
178:   2897.13   0.065665  331.84  0.007073  (-0.040230  0.016548  0.071978)
179:   2898.52   0.000000    0.00  0.000000  (-0.000007  0.000006  0.000007)

--------------------------
THERMOCHEMISTRY AT 298.15K
--------------------------

Temperature         ...   298.15 K
Pressure            ...     1.00 atm
Total Mass          ...  1183.52 AMU
Quasi RRHO          ...     True
Cut-Off Frequency   ...     1.00 cm^-1

Throughout the following assumptions are being made:
  (1) The electronic state is orbitally nondegenerate
  (2) There are no thermally accessible electronically excited states
  (3) Hindered rotations indicated by low frequency modes are not
      treated as such but are treated as vibrations and this may
      cause some error
  (4) All equations used are the standard statistical mechanics
      equations for an ideal gas
  (5) All vibrations are strictly harmonic

freq.      43.21  E(vib)   ...       0.53
freq.      45.85  E(vib)   ...       0.53
freq.      59.96  E(vib)   ...       0.51
freq.      62.46  E(vib)   ...       0.51
freq.      66.40  E(vib)   ...       0.50
freq.      72.51  E(vib)   ...       0.49
freq.      80.74  E(vib)   ...       0.48
freq.      81.45  E(vib)   ...       0.48
freq.      97.70  E(vib)   ...       0.46
freq.      98.57  E(vib)   ...       0.46
freq.      99.33  E(vib)   ...       0.46
freq.      99.44  E(vib)   ...       0.46
freq.     105.60  E(vib)   ...       0.45
freq.     106.10  E(vib)   ...       0.45
freq.     109.36  E(vib)   ...       0.45
freq.     109.58  E(vib)   ...       0.45
freq.     118.28  E(vib)   ...       0.44
freq.     126.06  E(vib)   ...       0.43
freq.     130.72  E(vib)   ...       0.43
freq.     136.95  E(vib)   ...       0.42
freq.     152.32  E(vib)   ...       0.40
freq.     152.35  E(vib)   ...       0.40
freq.     153.24  E(vib)   ...       0.40
freq.     153.48  E(vib)   ...       0.40
freq.     158.18  E(vib)   ...       0.39
freq.     158.74  E(vib)   ...       0.39
freq.     161.94  E(vib)   ...       0.39
freq.     162.45  E(vib)   ...       0.39
freq.     164.90  E(vib)   ...       0.39
freq.     167.25  E(vib)   ...       0.39
freq.     171.90  E(vib)   ...       0.38
freq.     174.71  E(vib)   ...       0.38
freq.     175.64  E(vib)   ...       0.38
freq.     188.47  E(vib)   ...       0.36
freq.     188.96  E(vib)   ...       0.36
freq.     190.36  E(vib)   ...       0.36
freq.     193.43  E(vib)   ...       0.36
freq.     194.65  E(vib)   ...       0.36
freq.     195.32  E(vib)   ...       0.36
freq.     207.42  E(vib)   ...       0.34
freq.     210.58  E(vib)   ...       0.34
freq.     214.16  E(vib)   ...       0.34
freq.     214.58  E(vib)   ...       0.34
freq.     227.78  E(vib)   ...       0.33
freq.     228.55  E(vib)   ...       0.32
freq.     234.46  E(vib)   ...       0.32
freq.     234.89  E(vib)   ...       0.32
freq.     246.84  E(vib)   ...       0.31
freq.     263.46  E(vib)   ...       0.29
freq.     265.51  E(vib)   ...       0.29
freq.     266.06  E(vib)   ...       0.29
freq.     267.65  E(vib)   ...       0.29
freq.     268.12  E(vib)   ...       0.29
freq.     270.94  E(vib)   ...       0.29
freq.     273.80  E(vib)   ...       0.28
freq.     276.56  E(vib)   ...       0.28
freq.     277.33  E(vib)   ...       0.28
freq.     277.85  E(vib)   ...       0.28
freq.     278.73  E(vib)   ...       0.28
freq.     278.91  E(vib)   ...       0.28
freq.     287.63  E(vib)   ...       0.27
freq.     288.08  E(vib)   ...       0.27
freq.     293.08  E(vib)   ...       0.27
freq.     293.21  E(vib)   ...       0.27
freq.     297.56  E(vib)   ...       0.27
freq.     300.58  E(vib)   ...       0.26
freq.     308.59  E(vib)   ...       0.26
freq.     308.98  E(vib)   ...       0.26
freq.     313.32  E(vib)   ...       0.25
freq.     314.28  E(vib)   ...       0.25
freq.     314.52  E(vib)   ...       0.25
freq.     318.71  E(vib)   ...       0.25
freq.     320.09  E(vib)   ...       0.25
freq.     320.28  E(vib)   ...       0.25
freq.     327.01  E(vib)   ...       0.24
freq.     327.47  E(vib)   ...       0.24
freq.     327.99  E(vib)   ...       0.24
freq.     343.49  E(vib)   ...       0.23
freq.     343.98  E(vib)   ...       0.23
freq.     354.97  E(vib)   ...       0.22
freq.     355.17  E(vib)   ...       0.22
freq.     369.80  E(vib)   ...       0.21
freq.     372.56  E(vib)   ...       0.21
freq.     391.24  E(vib)   ...       0.20
freq.     396.49  E(vib)   ...       0.20
freq.     405.40  E(vib)   ...       0.19
freq.     407.17  E(vib)   ...       0.19
freq.     407.59  E(vib)   ...       0.19
freq.     422.40  E(vib)   ...       0.18
freq.     422.83  E(vib)   ...       0.18
freq.     425.83  E(vib)   ...       0.18
freq.     426.52  E(vib)   ...       0.18
freq.     478.65  E(vib)   ...       0.15
freq.     482.05  E(vib)   ...       0.15
freq.     482.45  E(vib)   ...       0.15
freq.     534.67  E(vib)   ...       0.13
freq.     543.29  E(vib)   ...       0.12
freq.     626.74  E(vib)   ...       0.09
freq.     679.04  E(vib)   ...       0.08
freq.     679.62  E(vib)   ...       0.08
freq.     687.51  E(vib)   ...       0.07
freq.     688.49  E(vib)   ...       0.07
freq.     736.28  E(vib)   ...       0.06
freq.     736.42  E(vib)   ...       0.06
freq.     736.67  E(vib)   ...       0.06
freq.     736.75  E(vib)   ...       0.06
freq.     737.10  E(vib)   ...       0.06
freq.     738.92  E(vib)   ...       0.06
freq.     739.39  E(vib)   ...       0.06
freq.     739.64  E(vib)   ...       0.06
freq.     740.19  E(vib)   ...       0.06
freq.     740.31  E(vib)   ...       0.06
freq.     741.53  E(vib)   ...       0.06
freq.     741.79  E(vib)   ...       0.06
freq.    1002.65  E(vib)   ...       0.02
freq.    1002.68  E(vib)   ...       0.02
freq.    1003.03  E(vib)   ...       0.02
freq.    1003.05  E(vib)   ...       0.02
freq.    1004.54  E(vib)   ...       0.02
freq.    1004.62  E(vib)   ...       0.02
freq.    1006.93  E(vib)   ...       0.02
freq.    1007.10  E(vib)   ...       0.02
freq.    1007.33  E(vib)   ...       0.02
freq.    1007.79  E(vib)   ...       0.02
freq.    1007.95  E(vib)   ...       0.02
freq.    1008.23  E(vib)   ...       0.02
freq.    1346.78  E(vib)   ...       0.01
freq.    1346.80  E(vib)   ...       0.01
freq.    1347.12  E(vib)   ...       0.01
freq.    1347.14  E(vib)   ...       0.01
freq.    1347.58  E(vib)   ...       0.01
freq.    1347.83  E(vib)   ...       0.01
freq.    1353.92  E(vib)   ...       0.01
freq.    1354.44  E(vib)   ...       0.01
freq.    1354.65  E(vib)   ...       0.01
freq.    1355.63  E(vib)   ...       0.01
freq.    1355.82  E(vib)   ...       0.01
freq.    1356.44  E(vib)   ...       0.01
freq.    1361.83  E(vib)   ...       0.01
freq.    1361.93  E(vib)   ...       0.01
freq.    1361.98  E(vib)   ...       0.01
freq.    1362.08  E(vib)   ...       0.01

Rotational constants in cm-1:     0.001886     0.001886     0.001793

                             ****ORCA TERMINATED NORMALLY****
TOTAL RUN TIME: 0 days 0 hours 15 minutes 26 seconds 39 msec
