                         Program Version 6.1.0  -  RELEASE   -
|  1> # Geometry optimization for (AlH3)n cluster
|  2>
|  3> %pal nprocs 24  end
|  4>
|  5> %geom MaxIter 500 end
|  6>
|  7>
|  8> ! PBE def2-SV(P)
|  9> ! RKS	# closed shell for AlH3
| 10> ! D3    #  dispersion correction
| 11> ! gCP(DFT/SV(P))
| 12>
| 13> ! NoPop # population analysis not necessary
| 14>
| 15> ! DEFGRID3
| 16> ! TightSCF
| 17> ! NormalOpt
| 18>
| 19> ! SmallPrint
| 20>
| 21>
| 22> * xyzFile 0 1 start.xyz # only maingroup elements H and Al so there should be no net spin
| 23>
| 24>                          ****END OF INPUT****
 Total Charge           Charge          ....    0
 Multiplicity           Mult            ....    1
 Number of Electrons    NEL             ....  492
Dispersion correction           -0.170300878
FINAL SINGLE POINT ENERGY     -4464.501836377251
Dispersion correction             ... done (  0.2 sec)
Dispersion correction           -0.170215321
FINAL SINGLE POINT ENERGY     -4464.501896656275
Dispersion correction             ... done (  0.1 sec)
Dispersion correction           -0.168824999
FINAL SINGLE POINT ENERGY     -4464.501196165760
Dispersion correction             ... done (  0.1 sec)
FINAL SINGLE POINT ENERGY     -4464.502067696039
FINAL SINGLE POINT ENERGY     -4464.502116477970
FINAL SINGLE POINT ENERGY     -4464.502193137543
FINAL SINGLE POINT ENERGY     -4464.502348523908
FINAL SINGLE POINT ENERGY     -4464.502425953571
FINAL SINGLE POINT ENERGY     -4464.502531634621
FINAL SINGLE POINT ENERGY     -4464.502651995808
FINAL SINGLE POINT ENERGY     -4464.503495645291
FINAL SINGLE POINT ENERGY     -4464.503504547607
FINAL SINGLE POINT ENERGY     -4464.503511795071
FINAL SINGLE POINT ENERGY     -4464.503516602271
FINAL SINGLE POINT ENERGY     -4464.503521005922
FINAL SINGLE POINT ENERGY     -4464.503524627382
FINAL SINGLE POINT ENERGY     -4464.503527779149
Dispersion correction             ... done (  0.1 sec)
Dispersion correction           -0.170616981
FINAL SINGLE POINT ENERGY     -4464.503530451341
Dispersion correction             ... done (  0.1 sec)
Dispersion correction           -0.170623562
FINAL SINGLE POINT ENERGY     -4464.503532677423
Dispersion correction             ... done (  0.1 sec)
                    ***********************HURRAY********************

CARTESIAN COORDINATES (ANGSTROEM)
---------------------------------
  Zr    -0.200398    2.241560    1.202695
  Zr     0.824481   -2.335495   -0.784690
  Zr     2.127267   -0.629320    1.947664
  Zr    -1.496550    0.487250   -1.502849
  Zr     1.971465    0.856979   -1.505128
  Zr    -1.318553   -0.944909    1.973724
  O     -1.556480    0.583595    0.582274
  O      2.154832   -0.695770   -0.144273
  O      0.406957   -1.850119    1.199494
  O      0.217911    1.680150   -0.751125
  O      0.234567   -0.615233   -1.720328
  O      0.373549    0.461484    2.133891
  O     -1.566989    2.497847    2.935609
  O     -1.855977    3.502596    0.389998
  O      1.426652    2.811613    2.621546
  O      0.972609    3.981718    0.336565
  O     -0.912009   -3.594123   -0.291420
  O     -0.572280   -2.919749   -2.858457
  O      2.377084   -3.643231    0.087472
  O      2.284864   -2.547197   -2.476445
  O      1.633798   -1.625289    3.870780
  O      2.620092    1.039356    3.407538
  O      3.269590   -2.539383    1.851470
  O      4.061857    0.314621    1.358424
  O     -3.378442   -0.550135   -0.956730
  O     -2.658999    2.375237   -1.406711
  O     -1.970480   -1.135705   -3.083673
  O     -0.990900    1.514266   -3.418506
  O      1.270080    1.690890   -3.442634
  O      2.499865    2.964114   -1.009832
  O      2.917238   -0.444444   -3.031296
  O      4.128458    0.940703   -0.828390
  O     -3.470130   -1.109648    1.244583
  O     -2.291747    0.412013    3.449233
  O     -1.896565   -3.115973    1.691887
  O     -0.630192   -1.714472    3.937830
  C     -2.237631    1.666524    3.623622
  C     -2.641591    3.351299   -0.592384
  C      2.167344    2.217467    3.474787
  C      1.901075    3.980110   -0.520753
  C     -1.568099   -3.903705    0.766265
  C     -1.467171   -2.213373   -3.472132
  C      3.169238   -3.536108    1.075229
  C      2.912042   -1.703898   -3.187178
  C      0.527508   -1.930877    4.411781
  C      4.659117    0.615265    0.273069
  C     -3.990820   -0.824518    0.130211
  C      0.112467    1.867379   -3.933948
  H     -1.830002   -2.628639   -4.457467
  H      3.849575   -4.412144    1.274178
  H      2.463192    2.821722    4.381180
  H     -3.403420    4.164514   -0.763898
  H      3.522989   -2.113773   -4.040497
  H      0.061996    2.390549   -4.931427
  H      2.255780    4.987435   -0.885714
  H      5.787129    0.606260    0.306368
  H     -1.899085   -4.976173    0.850549
  H     -5.117931   -0.830106    0.077720
  H     -2.845192    2.087814    4.474580
  H      0.577261   -2.441453    5.415066
  Al     1.023754  -10.020448   -1.596491
  Al    -1.262246   -8.973603    0.448443
  H     -0.678788   -7.525831    1.170701
  H     -2.113069   -8.476986   -0.852829
  H      0.231883   -9.613617   -0.067324
  H     -0.098409  -10.774897   -2.479579
  H      1.241463   -8.439986   -2.149888
  H     -1.887131   -9.935540    1.578444
  Al     0.975457   -6.950917    1.451923
  H      1.433096   -6.738424   -0.150729
  H      0.681625   -5.538359    2.191553
  H      2.428585  -10.630078   -1.085543
  Al     1.338080   -6.634626   -2.030019
  H     -0.406960   -6.762095   -1.506992
  H      2.941597   -6.449322   -2.138282
  H      1.778306   -8.179906    2.130564
  Al    -1.923411   -6.790080   -2.284870
  H     -3.066767   -6.067251   -1.390692
  H     -2.052692   -7.930352   -3.419015
  Al     0.100003   -4.711230   -3.523014
  H      0.613810   -4.230314   -4.977938
  H      0.740586   -6.442148   -3.658076
  H      0.896598   -4.793436   -1.995214
  H     -1.462175   -5.374121   -3.353399

 Multiplicity           Mult            ....    1
 Number of Electrons    NEL             ....  492
 Basis Dimension        Dim             ....  900

ORBITAL ENERGIES
----------------

  NO   OCC          E(Eh)            E(eV)
   0   2.0000     -55.400691     -1507.5294
   1   2.0000     -55.399519     -1507.4976
   2   2.0000     -55.394390     -1507.3580
   3   2.0000     -55.377672     -1506.9031
   4   2.0000     -55.374952     -1506.8290
   5   2.0000     -55.372161     -1506.7531
   6   2.0000     -18.816808      -512.0314
   7   2.0000     -18.803119      -511.6589
   8   2.0000     -18.802635      -511.6457
   9   2.0000     -18.802388      -511.6390
  10   2.0000     -18.802127      -511.6319
  11   2.0000     -18.801975      -511.6278
  12   2.0000     -18.801971      -511.6276
  13   2.0000     -18.801877      -511.6251
  14   2.0000     -18.801867      -511.6248
  15   2.0000     -18.801295      -511.6092
  16   2.0000     -18.801230      -511.6075
  17   2.0000     -18.800988      -511.6009
  18   2.0000     -18.800523      -511.5882
  19   2.0000     -18.799544      -511.5616
  20   2.0000     -18.799219      -511.5527
  21   2.0000     -18.799043      -511.5480
  22   2.0000     -18.798553      -511.5346
  23   2.0000     -18.798203      -511.5251
  24   2.0000     -18.796534      -511.4797
  25   2.0000     -18.796155      -511.4694
  26   2.0000     -18.795796      -511.4596
  27   2.0000     -18.795681      -511.4565
  28   2.0000     -18.795487      -511.4512
  29   2.0000     -18.795395      -511.4487
  30   2.0000     -18.772699      -510.8311
  31   2.0000     -18.770757      -510.7783
  32   2.0000     -18.770054      -510.7591
  33   2.0000     -18.769388      -510.7410
  34   2.0000     -18.768099      -510.7059
  35   2.0000     -18.767982      -510.7028
  36   2.0000     -10.058090      -273.6945
  37   2.0000     -10.052484      -273.5420
  38   2.0000     -10.052104      -273.5317
  39   2.0000     -10.052009      -273.5291
  40   2.0000     -10.051859      -273.5250
  41   2.0000     -10.049637      -273.4645
  42   2.0000     -10.049544      -273.4620
  43   2.0000     -10.049231      -273.4535
  44   2.0000     -10.048061      -273.4216
  45   2.0000     -10.046171      -273.3702
  46   2.0000     -10.045639      -273.3557
  47   2.0000     -10.045355      -273.3480
  48   2.0000      -3.948429      -107.4422
  49   2.0000      -3.946842      -107.3990
  50   2.0000      -3.946403      -107.3871
  51   2.0000      -3.932199      -107.0006
  52   2.0000      -3.930188      -106.9459
  53   2.0000      -3.925168      -106.8093
  54   2.0000      -2.556588       -69.5683
  55   2.0000      -2.554551       -69.5129
  56   2.0000      -2.554457       -69.5103
  57   2.0000      -2.554294       -69.5059
  58   2.0000      -2.553997       -69.4978
  59   2.0000      -2.552775       -69.4646
  60   2.0000      -2.550523       -69.4032
  61   2.0000      -2.549417       -69.3732
  62   2.0000      -2.548961       -69.3608
  63   2.0000      -2.541304       -69.1524
  64   2.0000      -2.539373       -69.0998
  65   2.0000      -2.537774       -69.0563
  66   2.0000      -2.536180       -69.0130
  67   2.0000      -2.534379       -68.9639
  68   2.0000      -2.533909       -68.9512
  69   2.0000      -2.531385       -68.8825
  70   2.0000      -2.531279       -68.8796
  71   2.0000      -2.526305       -68.7443
  72   2.0000      -2.065793       -56.2131
  73   2.0000      -2.064546       -56.1792
  74   2.0000      -2.063620       -56.1539
  75   2.0000      -2.062672       -56.1282
  76   2.0000      -2.062253       -56.1167
  77   2.0000      -2.061923       -56.1078
  78   2.0000      -1.247723       -33.9523
  79   2.0000      -1.244125       -33.8544
  80   2.0000      -1.243541       -33.8385
  81   2.0000      -1.242070       -33.7984
  82   2.0000      -1.240550       -33.7571
  83   2.0000      -1.240458       -33.7546
  84   2.0000      -1.238126       -33.6911
  85   2.0000      -1.237600       -33.6768
  86   2.0000      -1.236289       -33.6411
  87   2.0000      -1.236141       -33.6371
  88   2.0000      -1.235781       -33.6273
  89   2.0000      -1.234441       -33.5908
  90   2.0000      -1.233580       -33.5674
  91   2.0000      -1.232699       -33.5434
  92   2.0000      -1.231931       -33.5225
  93   2.0000      -1.231063       -33.4989
  94   2.0000      -1.230424       -33.4815
  95   2.0000      -1.230146       -33.4740
  96   2.0000      -1.014326       -27.6012
  97   2.0000      -1.010401       -27.4944
  98   2.0000      -1.009229       -27.4625
  99   2.0000      -1.009038       -27.4573
 100   2.0000      -1.008562       -27.4444
 101   2.0000      -1.007644       -27.4194
 102   2.0000      -1.006944       -27.4003
 103   2.0000      -1.006114       -27.3777
 104   2.0000      -1.003306       -27.3013
 105   2.0000      -1.002405       -27.2768
 106   2.0000      -1.000417       -27.2227
 107   2.0000      -0.999845       -27.2072
 108   2.0000      -0.938422       -25.5358
 109   2.0000      -0.929119       -25.2826
 110   2.0000      -0.928786       -25.2735
 111   2.0000      -0.928076       -25.2542
 112   2.0000      -0.927437       -25.2369
 113   2.0000      -0.926655       -25.2156
 114   2.0000      -0.925557       -25.1857
 115   2.0000      -0.924829       -25.1659
 116   2.0000      -0.922994       -25.1159
 117   2.0000      -0.922524       -25.1032
 118   2.0000      -0.921958       -25.0877
 119   2.0000      -0.919195       -25.0126
 120   2.0000      -0.841208       -22.8904
 121   2.0000      -0.832479       -22.6529
 122   2.0000      -0.831371       -22.6228
 123   2.0000      -0.823358       -22.4047
 124   2.0000      -0.820800       -22.3351
 125   2.0000      -0.818387       -22.2694
 126   2.0000      -0.576892       -15.6980
 127   2.0000      -0.570582       -15.5263
 128   2.0000      -0.569133       -15.4869
 129   2.0000      -0.569101       -15.4860
 130   2.0000      -0.566411       -15.4128
 131   2.0000      -0.565632       -15.3916
 132   2.0000      -0.564913       -15.3721
 133   2.0000      -0.563506       -15.3338
 134   2.0000      -0.561757       -15.2862
 135   2.0000      -0.559906       -15.2358
 136   2.0000      -0.557394       -15.1675
 137   2.0000      -0.557017       -15.1572
 138   2.0000      -0.512366       -13.9422
 139   2.0000      -0.486121       -13.2280
 140   2.0000      -0.483434       -13.1549
 141   2.0000      -0.482793       -13.1375
 142   2.0000      -0.482280       -13.1235
 143   2.0000      -0.480819       -13.0838
 144   2.0000      -0.478576       -13.0227
 145   2.0000      -0.478362       -13.0169
 146   2.0000      -0.477458       -12.9923
 147   2.0000      -0.476492       -12.9660
 148   2.0000      -0.475501       -12.9390
 149   2.0000      -0.474713       -12.9176
 150   2.0000      -0.472100       -12.8465
 151   2.0000      -0.470791       -12.8109
 152   2.0000      -0.470182       -12.7943
 153   2.0000      -0.468581       -12.7507
 154   2.0000      -0.467890       -12.7319
 155   2.0000      -0.467764       -12.7285
 156   2.0000      -0.467185       -12.7127
 157   2.0000      -0.465619       -12.6701
 158   2.0000      -0.458296       -12.4709
 159   2.0000      -0.455566       -12.3966
 160   2.0000      -0.454998       -12.3811
 161   2.0000      -0.454670       -12.3722
 162   2.0000      -0.453725       -12.3465
 163   2.0000      -0.442581       -12.0432
 164   2.0000      -0.437066       -11.8932
 165   2.0000      -0.431766       -11.7490
 166   2.0000      -0.430929       -11.7262
 167   2.0000      -0.430124       -11.7043
 168   2.0000      -0.421030       -11.4568
 169   2.0000      -0.420397       -11.4396
 170   2.0000      -0.418765       -11.3952
 171   2.0000      -0.418044       -11.3756
 172   2.0000      -0.415566       -11.3081
 173   2.0000      -0.412885       -11.2352
 174   2.0000      -0.411539       -11.1986
 175   2.0000      -0.411060       -11.1855
 176   2.0000      -0.400376       -10.8948
 177   2.0000      -0.394283       -10.7290
 178   2.0000      -0.383714       -10.4414
 179   2.0000      -0.381225       -10.3737
 180   2.0000      -0.377529       -10.2731
 181   2.0000      -0.377002       -10.2587
 182   2.0000      -0.371115       -10.0985
 183   2.0000      -0.370087       -10.0706
 184   2.0000      -0.369643       -10.0585
 185   2.0000      -0.368454       -10.0262
 186   2.0000      -0.352122        -9.5817
 187   2.0000      -0.345638        -9.4053
 188   2.0000      -0.345164        -9.3924
 189   2.0000      -0.343156        -9.3377
 190   2.0000      -0.341420        -9.2905
 191   2.0000      -0.340550        -9.2668
 192   2.0000      -0.333686        -9.0801
 193   2.0000      -0.332541        -9.0489
 194   2.0000      -0.328442        -8.9374
 195   2.0000      -0.323931        -8.8146
 196   2.0000      -0.323233        -8.7956
 197   2.0000      -0.321861        -8.7583
 198   2.0000      -0.320054        -8.7091
 199   2.0000      -0.317707        -8.6453
 200   2.0000      -0.313065        -8.5189
 201   2.0000      -0.312258        -8.4970
 202   2.0000      -0.310264        -8.4427
 203   2.0000      -0.310227        -8.4417
 204   2.0000      -0.307586        -8.3698
 205   2.0000      -0.306762        -8.3474
 206   2.0000      -0.305630        -8.3166
 207   2.0000      -0.302078        -8.2200
 208   2.0000      -0.300475        -8.1764
 209   2.0000      -0.299973        -8.1627
 210   2.0000      -0.298982        -8.1357
 211   2.0000      -0.297406        -8.0928
 212   2.0000      -0.297176        -8.0866
 213   2.0000      -0.296614        -8.0713
 214   2.0000      -0.295598        -8.0436
 215   2.0000      -0.294912        -8.0250
 216   2.0000      -0.294505        -8.0139
 217   2.0000      -0.292284        -7.9534
 218   2.0000      -0.291815        -7.9407
 219   2.0000      -0.290973        -7.9178
 220   2.0000      -0.290372        -7.9014
 221   2.0000      -0.287691        -7.8285
 222   2.0000      -0.286140        -7.7863
 223   2.0000      -0.285770        -7.7762
 224   2.0000      -0.284802        -7.7499
 225   2.0000      -0.283647        -7.7184
 226   2.0000      -0.283237        -7.7073
 227   2.0000      -0.282606        -7.6901
 228   2.0000      -0.282105        -7.6765
 229   2.0000      -0.281720        -7.6660
 230   2.0000      -0.279755        -7.6125
 231   2.0000      -0.279203        -7.5975
 232   2.0000      -0.278482        -7.5779
 233   2.0000      -0.277866        -7.5611
 234   2.0000      -0.275875        -7.5069
 235   2.0000      -0.272414        -7.4128
 236   2.0000      -0.271756        -7.3949
 237   2.0000      -0.262046        -7.1306
 238   2.0000      -0.258698        -7.0395
 239   2.0000      -0.256253        -6.9730
 240   2.0000      -0.253363        -6.8943
 241   2.0000      -0.250272        -6.8102
 242   2.0000      -0.248897        -6.7728
 243   2.0000      -0.248706        -6.7676
 244   2.0000      -0.245283        -6.6745
 245   2.0000      -0.231732        -6.3057
 246   0.0000      -0.132068        -3.5938
 247   0.0000      -0.129046        -3.5115
 248   0.0000      -0.105004        -2.8573
 249   0.0000      -0.103264        -2.8100
 250   0.0000      -0.101598        -2.7646

-------
TIMINGS
-------

Dispersion correction           -0.170626160
FINAL SINGLE POINT ENERGY     -4464.503534395201

DIPOLE MOMENT
-------------

Method             : SCF
Type of density    : Electron Density
Multiplicity       :   1
Irrep              :   0
Energy             : -4464.7513909928493376 Eh
Basis              : AO
                                X                 Y                 Z
Electronic contribution:     18.534592519     430.832581689      93.952842437
Nuclear contribution   :    -18.808303435    -427.441040929     -93.337727298
                        -----------------------------------------
Total Dipole Moment    :     -0.273710916       3.391540760       0.615115140
                        -----------------------------------------
Magnitude (a.u.)       :      3.457720785
Magnitude (Debye)      :      8.788827776

Rotational constants in cm-1:             0.001650             0.000919             0.000887
Rotational constants in MHz :            49.462445            27.546766            26.592602

                             ****ORCA TERMINATED NORMALLY****
TOTAL RUN TIME: 0 days 2 hours 27 minutes 0 seconds 441 msec
