                         Program Version 6.1.0  -  RELEASE   -
|  1> # Geometry optimization for (AlH3)n cluster
|  2>
|  3> %pal nprocs 24  end
|  4>
|  5> %geom MaxIter 500 end
|  6>
|  7>
|  8> ! PBE def2-SV(P)
|  9> ! RKS	# closed shell for AlH3
| 10> ! D3    #  dispersion correction
| 11> ! gCP(DFT/SV(P))
| 12> ! Freq 	# Frequency analysis to check the stabiltity of the structures
| 13>
| 14> ! NoPop # population analysis not necessary
| 15>
| 16> ! RI
| 17> ! DEFGRID2
| 18> ! NormalSCF
| 19> ! SloppyOpt
| 20>
| 21> ! SmallPrint
| 22>
| 23>
| 24> * xyzFile 0 1 start.xyz # only maingroup elements H and Al so there should be no net spin
| 25>
| 26>                          ****END OF INPUT****
 Total Charge           Charge          ....    0
 Multiplicity           Mult            ....    1
 Number of Electrons    NEL             ....   96
Dispersion correction           -0.024544920
FINAL SINGLE POINT ENERGY     -1463.492127220048
Dispersion correction             ... done (  0.1 sec)
Dispersion correction           -0.024388233
FINAL SINGLE POINT ENERGY     -1463.552335749581
Dispersion correction             ... done (  0.1 sec)
Dispersion correction           -0.024285917
FINAL SINGLE POINT ENERGY     -1463.605565757276
Dispersion correction             ... done (  0.1 sec)
FINAL SINGLE POINT ENERGY     -1463.667686477711
FINAL SINGLE POINT ENERGY     -1463.734960425479
FINAL SINGLE POINT ENERGY     -1463.781584250663
FINAL SINGLE POINT ENERGY     -1463.815199624220
FINAL SINGLE POINT ENERGY     -1463.841268955280
FINAL SINGLE POINT ENERGY     -1463.862251040212
FINAL SINGLE POINT ENERGY     -1463.878244712402
FINAL SINGLE POINT ENERGY     -1463.898164627167
FINAL SINGLE POINT ENERGY     -1463.899830286907
FINAL SINGLE POINT ENERGY     -1463.900640592386
FINAL SINGLE POINT ENERGY     -1463.901341256152
FINAL SINGLE POINT ENERGY     -1463.901935691528
FINAL SINGLE POINT ENERGY     -1463.902345832473
FINAL SINGLE POINT ENERGY     -1463.902591136490
Dispersion correction             ... done (  0.1 sec)
Dispersion correction           -0.023360812
FINAL SINGLE POINT ENERGY     -1463.902768641260
Dispersion correction             ... done (  0.1 sec)
Dispersion correction           -0.023387846
FINAL SINGLE POINT ENERGY     -1463.902928659151
Dispersion correction             ... done (  0.1 sec)
                    ***********************HURRAY********************

CARTESIAN COORDINATES (ANGSTROEM)
---------------------------------
  Al    -0.175233    1.260918    3.054468
  Al     0.609724   -0.125378    0.156863
  H      1.025755   -1.703451    0.726178
  H     -0.944772   -0.178463   -0.266785
  H      0.715746    0.685400    1.684325
  H     -1.539901    1.933675    2.518787
  H     -0.621747   -0.296505    3.678854
  H      1.874333    0.406791   -0.688460
  Al     0.858561   -3.254240    1.485334
  H     -0.007972   -2.671273    2.859328
  H     -0.216637   -4.081341    0.610973
  H      0.914500    1.910977    4.050767
  Al     0.498956   -1.581708    4.157870
  H     -1.026939   -2.262053    4.872189
  H      1.907993   -1.004683    3.597792
  H      2.321605   -3.731924    1.941867
  Al    -1.731473   -2.994812    6.237469
  H     -2.026160   -4.543815    5.908849
  H     -2.650530   -1.935004    7.029342
  Al     1.263936   -2.379986    6.597849
  H      2.485436   -2.440002    7.630381
  H      0.715610   -0.904126    5.972058
  H      1.369612   -3.078883    5.067553
  H     -0.204044   -3.034733    7.182977

 Multiplicity           Mult            ....    1
 Number of Electrons    NEL             ....   96
 Basis Dimension        Dim             ....  144

ORBITAL ENERGIES
----------------

  NO   OCC          E(Eh)            E(eV)
   0   2.0000     -55.430345     -1508.3364
   1   2.0000     -55.415653     -1507.9366
   2   2.0000     -55.400020     -1507.5112
   3   2.0000     -55.392336     -1507.3021
   4   2.0000     -55.389019     -1507.2118
   5   2.0000     -55.388803     -1507.2060
   6   2.0000      -3.977528      -108.2340
   7   2.0000      -3.972415      -108.0949
   8   2.0000      -3.956196      -107.6536
   9   2.0000      -3.947034      -107.4042
  10   2.0000      -3.944262      -107.3288
  11   2.0000      -3.944216      -107.3276
  12   2.0000      -2.584859       -70.3376
  13   2.0000      -2.584639       -70.3316
  14   2.0000      -2.579952       -70.2041
  15   2.0000      -2.579739       -70.1983
  16   2.0000      -2.579313       -70.1867
  17   2.0000      -2.574377       -70.0523
  18   2.0000      -2.565562       -69.8125
  19   2.0000      -2.562253       -69.7224
  20   2.0000      -2.556951       -69.5782
  21   2.0000      -2.555772       -69.5461
  22   2.0000      -2.553772       -69.4917
  23   2.0000      -2.553068       -69.4725
  24   2.0000      -2.552955       -69.4694
  25   2.0000      -2.550726       -69.4088
  26   2.0000      -2.550692       -69.4079
  27   2.0000      -2.547820       -69.3297
  28   2.0000      -2.545256       -69.2599
  29   2.0000      -2.545235       -69.2594
  30   2.0000      -0.506685       -13.7876
  31   2.0000      -0.457937       -12.4611
  32   2.0000      -0.419057       -11.4031
  33   2.0000      -0.414474       -11.2784
  34   2.0000      -0.402441       -10.9510
  35   2.0000      -0.361194        -9.8286
  36   2.0000      -0.342089        -9.3087
  37   2.0000      -0.323327        -8.7982
  38   2.0000      -0.315689        -8.5903
  39   2.0000      -0.312001        -8.4900
  40   2.0000      -0.309498        -8.4219
  41   2.0000      -0.291181        -7.9234
  42   2.0000      -0.288322        -7.8457
  43   2.0000      -0.281995        -7.6735
  44   2.0000      -0.278534        -7.5793
  45   2.0000      -0.270636        -7.3644
  46   2.0000      -0.267593        -7.2816
  47   2.0000      -0.253735        -6.9045
  48   0.0000      -0.094440        -2.5698
  49   0.0000      -0.067830        -1.8458
  50   0.0000      -0.062948        -1.7129
  51   0.0000      -0.058662        -1.5963
  52   0.0000      -0.045346        -1.2339

-------
TIMINGS
-------

Dispersion correction           -0.023422348
FINAL SINGLE POINT ENERGY     -1463.903047566427

DIPOLE MOMENT
-------------

Method             : SCF
Type of density    : Electron Density
Multiplicity       :   1
Irrep              :   0
Energy             : -1463.9604239056786810 Eh
Basis              : AO
                                X                 Y                 Z
Electronic contribution:     -0.098991547      -0.639560584       1.573515312
Nuclear contribution   :      0.103550922       0.258886472      -0.605325132
                        -----------------------------------------
Total Dipole Moment    :      0.004559376      -0.380674112       0.968190180
                        -----------------------------------------
Magnitude (a.u.)       :      1.040348880
Magnitude (Debye)      :      2.644356704

VIBRATIONAL FREQUENCIES
-----------------------

Scaling factor for frequencies =  1.000000000  (already applied!)

     0:       0.00 cm**-1
     1:       0.00 cm**-1
     2:       0.00 cm**-1
     3:       0.00 cm**-1
     4:       0.00 cm**-1
     5:       0.00 cm**-1
     6:     -68.74 cm**-1  ***imaginary mode***
     7:     -34.42 cm**-1  ***imaginary mode***
     8:      16.11 cm**-1
     9:      40.81 cm**-1
    10:      58.39 cm**-1
    11:      95.90 cm**-1
    12:     101.64 cm**-1
    13:     121.85 cm**-1
    14:     157.79 cm**-1
    15:     194.60 cm**-1
    16:     203.01 cm**-1
    17:     208.71 cm**-1
    18:     246.58 cm**-1
    19:     270.58 cm**-1
    20:     290.18 cm**-1
    21:     302.28 cm**-1
    22:     332.71 cm**-1
    23:     358.60 cm**-1
    24:     368.22 cm**-1
    25:     381.98 cm**-1
    26:     400.70 cm**-1
    27:     429.26 cm**-1
    28:     447.64 cm**-1
    29:     482.44 cm**-1
    30:     487.65 cm**-1
    31:     535.77 cm**-1
    32:     547.92 cm**-1
    33:     579.78 cm**-1
    34:     633.80 cm**-1
    35:     644.77 cm**-1
    36:     660.81 cm**-1
    37:     667.24 cm**-1
    38:     670.96 cm**-1
    39:     686.31 cm**-1
    40:     705.12 cm**-1
    41:     709.78 cm**-1
    42:     724.66 cm**-1
    43:     751.84 cm**-1
    44:     776.36 cm**-1
    45:     811.08 cm**-1
    46:     815.18 cm**-1
    47:     887.88 cm**-1
    48:     894.59 cm**-1
    49:     948.52 cm**-1
    50:    1046.21 cm**-1
    51:    1073.14 cm**-1
    52:    1100.81 cm**-1
    53:    1107.18 cm**-1
    54:    1577.21 cm**-1
    55:    1608.06 cm**-1
    56:    1645.22 cm**-1
    57:    1661.54 cm**-1
    58:    1702.81 cm**-1
    59:    1822.32 cm**-1
    60:    1829.05 cm**-1
    61:    1858.74 cm**-1
    62:    1861.83 cm**-1
    63:    1880.34 cm**-1
    64:    1886.86 cm**-1
    65:    1888.35 cm**-1
    66:    1892.92 cm**-1
    67:    1902.06 cm**-1
    68:    1906.66 cm**-1
    69:    1916.18 cm**-1
    70:    1933.64 cm**-1
    71:    1939.72 cm**-1

IR SPECTRUM
-----------

 Mode   freq       eps      Int      T**2         TX        TY        TZ
       cm**-1   L/(mol*cm) km/mol    a.u.
----------------------------------------------------------------------------
  8:     16.11   0.000040    0.20  0.000781  (-0.006859  0.024044  0.012469)
  9:     40.81   0.000098    0.49  0.000748  ( 0.017862  0.020130  0.004830)
 10:     58.39   0.000027    0.14  0.000143  ( 0.006706 -0.003564  0.009232)
 11:     95.90   0.000035    0.18  0.000114  (-0.003174 -0.006596 -0.007766)
 12:    101.64   0.000014    0.07  0.000044  (-0.000270  0.005803  0.003275)
 13:    121.85   0.000499    2.52  0.001277  ( 0.008422 -0.032743 -0.011570)
 14:    157.79   0.000255    1.29  0.000504  ( 0.016024 -0.006145  0.014471)
 15:    194.60   0.000228    1.15  0.000366  (-0.007671  0.004625  0.016914)
 16:    203.01   0.000293    1.48  0.000451  (-0.008367  0.003557 -0.019190)
 17:    208.71   0.001580    7.99  0.002363  (-0.010228  0.016829 -0.044438)
 18:    246.58   0.002145   10.84  0.002715  (-0.004798 -0.019560  0.048055)
 19:    270.58   0.000486    2.45  0.000560  ( 0.001287 -0.021973 -0.008697)
 20:    290.18   0.001196    6.04  0.001286  (-0.025766  0.000993  0.024916)
 21:    302.28   0.001378    6.97  0.001423  (-0.009802  0.013117 -0.033983)
 22:    332.71   0.000761    3.84  0.000713  (-0.025473 -0.007470 -0.002939)
 23:    358.60   0.000082    0.41  0.000071  (-0.005167 -0.006057 -0.002822)
 24:    368.22   0.009684   48.94  0.008207  (-0.043919 -0.038451  0.069278)
 25:    381.98   0.000337    1.70  0.000275  (-0.006347 -0.012155  0.009347)
 26:    400.70   0.000549    2.77  0.000427  ( 0.014649  0.005655 -0.013446)
 27:    429.26   0.002370   11.98  0.001723  ( 0.011087 -0.009727  0.038797)
 28:    447.64   0.000260    1.31  0.000181  ( 0.003050  0.012375 -0.004299)
 29:    482.44   0.011596   58.60  0.007501  (-0.036632 -0.020984  0.075620)
 30:    487.65   0.007767   39.25  0.004971  ( 0.031002  0.033336 -0.053836)
 31:    535.77   0.009345   47.22  0.005443  (-0.022953 -0.027911  0.064319)
 32:    547.92   0.011495   58.09  0.006547  ( 0.017834 -0.071720 -0.032939)
 33:    579.78   0.054031  273.05  0.029082  ( 0.050516  0.074128 -0.145034)
 34:    633.80   0.000140    0.71  0.000069  ( 0.005952 -0.005674  0.001199)
 35:    644.77   0.100701  508.90  0.048738  ( 0.034861 -0.209974 -0.058602)
 36:    660.81   0.132378  668.99  0.062515  ( 0.058847  0.108730 -0.217325)
 37:    667.24   0.075683  382.47  0.035396  (-0.140769 -0.027459  0.121764)
 38:    670.96   0.116922  590.88  0.054381  ( 0.016378 -0.219973 -0.075661)
 39:    686.31   0.046771  236.36  0.021267  ( 0.100223 -0.047369  0.094753)
 40:    705.12   0.125067  632.04  0.055351  ( 0.013505 -0.083247  0.219632)
 41:    709.78   0.021652  109.42  0.009520  ( 0.016671 -0.064045 -0.071693)
 42:    724.66   0.016879   85.30  0.007269  (-0.002075 -0.079724 -0.030143)
 43:    751.84   0.017451   88.19  0.007243  (-0.079181  0.016663 -0.026383)
 44:    776.36   0.010437   52.75  0.004195  ( 0.002369  0.014311  0.063126)
 45:    811.08   0.033088  167.21  0.012730  (-0.053990 -0.072972 -0.067012)
 46:    815.18   0.060984  308.19  0.023346  (-0.132492  0.056873 -0.050568)
 47:    887.88   0.018723   94.62  0.006581  (-0.077389 -0.015441 -0.018788)
 48:    894.59   0.044056  222.64  0.015368  (-0.017820  0.021919 -0.120708)
 49:    948.52   0.021637  109.34  0.007118  (-0.022056  0.080249  0.013861)
 50:   1046.21   0.024696  124.80  0.007366  ( 0.070957  0.038146  0.029601)
 51:   1073.14   0.013023   65.81  0.003787  (-0.041330  0.019482 -0.041223)
 52:   1100.81   0.030327  153.26  0.008597  (-0.090663  0.003326 -0.019139)
 53:   1107.18   0.088154  445.49  0.024846  (-0.002451 -0.056229  0.147237)
 54:   1577.21   0.024655  124.60  0.004878  (-0.018037  0.062539  0.025334)
 55:   1608.06   0.209669  1059.58  0.040689  ( 0.008459  0.129042 -0.154808)
 56:   1645.22   0.073575  371.82  0.013956  ( 0.028629  0.102076 -0.052120)
 57:   1661.54   0.229808  1161.35  0.043161  ( 0.061475 -0.004568 -0.198397)
 58:   1702.81   0.114774  580.02  0.021034  ( 0.141975  0.029022 -0.005899)
 59:   1822.32   0.100724  509.02  0.017248  ( 0.103227 -0.005236 -0.081026)
 60:   1829.05   0.220732  1115.49  0.037660  ( 0.022582 -0.155488 -0.113903)
 61:   1858.74   0.103311  522.09  0.017345  (-0.017501 -0.120691  0.049722)
 62:   1861.83   0.031695  160.17  0.005312  ( 0.050703  0.001811  0.052330)
 63:   1880.34   0.005732   28.97  0.000951  ( 0.004803 -0.000513  0.030462)
 64:   1886.86   0.000813    4.11  0.000134  ( 0.002977 -0.011006 -0.002098)
 65:   1888.35   0.009670   48.87  0.001598  (-0.015158  0.029705  0.022044)
 66:   1892.92   0.029559  149.38  0.004873  (-0.053923  0.026228 -0.035742)
 67:   1902.06   0.038418  194.15  0.006303  (-0.076235 -0.020191  0.009148)
 68:   1906.66   0.039504  199.64  0.006466  ( 0.020733 -0.070923 -0.031712)
 69:   1916.18   0.046065  232.80  0.007502  (-0.064720  0.014532 -0.055698)
 70:   1933.64   0.023240  117.45  0.003751  (-0.033341  0.017633 -0.048251)
 71:   1939.72   0.089492  452.26  0.014398  ( 0.016710  0.093408 -0.073438)

--------------------------
THERMOCHEMISTRY AT 298.15K
--------------------------

Temperature         ...   298.15 K
Pressure            ...     1.00 atm
Total Mass          ...   180.04 AMU
Quasi RRHO          ...     True
Cut-Off Frequency   ...     1.00 cm^-1

Throughout the following assumptions are being made:
  (1) The electronic state is orbitally nondegenerate
  (2) There are no thermally accessible electronically excited states
  (3) Hindered rotations indicated by low frequency modes are not
      treated as such but are treated as vibrations and this may
      cause some error
  (4) All equations used are the standard statistical mechanics
      equations for an ideal gas
  (5) All vibrations are strictly harmonic

freq.      16.11  E(vib)   ...       0.57
freq.      40.81  E(vib)   ...       0.54
freq.      58.39  E(vib)   ...       0.51
freq.      95.90  E(vib)   ...       0.47
freq.     101.64  E(vib)   ...       0.46
freq.     121.85  E(vib)   ...       0.44
freq.     157.79  E(vib)   ...       0.40
freq.     194.60  E(vib)   ...       0.36
freq.     203.01  E(vib)   ...       0.35
freq.     208.71  E(vib)   ...       0.34
freq.     246.58  E(vib)   ...       0.31
freq.     270.58  E(vib)   ...       0.29
freq.     290.18  E(vib)   ...       0.27
freq.     302.28  E(vib)   ...       0.26
freq.     332.71  E(vib)   ...       0.24
freq.     358.60  E(vib)   ...       0.22
freq.     368.22  E(vib)   ...       0.21
freq.     381.98  E(vib)   ...       0.21
freq.     400.70  E(vib)   ...       0.19
freq.     429.26  E(vib)   ...       0.18
freq.     447.64  E(vib)   ...       0.17
freq.     482.44  E(vib)   ...       0.15
freq.     487.65  E(vib)   ...       0.15
freq.     535.77  E(vib)   ...       0.12
freq.     547.92  E(vib)   ...       0.12
freq.     579.78  E(vib)   ...       0.11
freq.     633.80  E(vib)   ...       0.09
freq.     644.77  E(vib)   ...       0.09
freq.     660.81  E(vib)   ...       0.08
freq.     667.24  E(vib)   ...       0.08
freq.     670.96  E(vib)   ...       0.08
freq.     686.31  E(vib)   ...       0.07
freq.     705.12  E(vib)   ...       0.07
freq.     709.78  E(vib)   ...       0.07
freq.     724.66  E(vib)   ...       0.06
freq.     751.84  E(vib)   ...       0.06
freq.     776.36  E(vib)   ...       0.05
freq.     811.08  E(vib)   ...       0.05
freq.     815.18  E(vib)   ...       0.05
freq.     887.88  E(vib)   ...       0.04
freq.     894.59  E(vib)   ...       0.03
freq.     948.52  E(vib)   ...       0.03
freq.    1046.21  E(vib)   ...       0.02
freq.    1073.14  E(vib)   ...       0.02
freq.    1100.81  E(vib)   ...       0.02
freq.    1107.18  E(vib)   ...       0.02
freq.    1577.21  E(vib)   ...       0.00
freq.    1608.06  E(vib)   ...       0.00
freq.    1645.22  E(vib)   ...       0.00
freq.    1661.54  E(vib)   ...       0.00
freq.    1702.81  E(vib)   ...       0.00
freq.    1822.32  E(vib)   ...       0.00
freq.    1829.05  E(vib)   ...       0.00
freq.    1858.74  E(vib)   ...       0.00
freq.    1861.83  E(vib)   ...       0.00
freq.    1880.34  E(vib)   ...       0.00
freq.    1886.86  E(vib)   ...       0.00
freq.    1888.35  E(vib)   ...       0.00
freq.    1892.92  E(vib)   ...       0.00
freq.    1902.06  E(vib)   ...       0.00
freq.    1906.66  E(vib)   ...       0.00
freq.    1916.18  E(vib)   ...       0.00
freq.    1933.64  E(vib)   ...       0.00
freq.    1939.72  E(vib)   ...       0.00

------------
INNER ENERGY
------------

The inner energy is: U= E(el) + E(ZPE) + E(vib) + E(rot) + E(trans)
    E(el)   - is the total energy from the electronic structure calculation
              = E(kin-el) + E(nuc-el) + E(el-el) + E(nuc-nuc)
    E(ZPE)  - the the zero temperature vibrational energy from the frequency calculation
    E(vib)  - the the finite temperature correction to E(ZPE) due to population
              of excited vibrational states
    E(rot)  - is the rotational thermal energy
    E(trans)- is the translational thermal energy

Summary of contributions to the inner energy U:
Electronic energy                ...  -1463.90304757 Eh
Zero point energy                ...      0.12915134 Eh      81.04 kcal/mol
Thermal vibrational correction   ...      0.01385996 Eh       8.70 kcal/mol
Thermal rotational correction    ...      0.00141627 Eh       0.89 kcal/mol
Thermal translational correction ...      0.00141627 Eh       0.89 kcal/mol
-----------------------------------------------------------------------
Total thermal energy                  -1463.75720372 Eh

Summary of corrections to the electronic energy:
(perhaps to be used in another calculation)
Total thermal correction                  0.01669250 Eh      10.47 kcal/mol
Non-thermal (ZPE) correction              0.12915134 Eh      81.04 kcal/mol
-----------------------------------------------------------------------
Total correction                          0.14584385 Eh      91.52 kcal/mol

--------
ENTHALPY
--------

The enthalpy is H = U + kB*T
                kB is Boltzmann's constant
Total thermal energy              ...  -1463.75720372 Eh
Thermal Enthalpy correction       ...      0.00094421 Eh       0.59 kcal/mol
-----------------------------------------------------------------------
Total Enthalpy                    ...  -1463.75625951 Eh

Note: Only C1 symmetry has been detected, increase convergence thresholds
      if your molecule has a higher symmetry. Symmetry factor of 1.0 is
      used for the rotational entropy correction.

Note: Rotational entropy computed according to Herzberg
Infrared and Raman Spectra, Chapter V,1, Van Nostrand Reinhold, 1945
Point Group:  C1, Symmetry Number:   1
Rotational constants in cm-1:     0.030957     0.012927     0.011141

Vibrational entropy computed according to the QRRHO of S. Grimme
Chem.Eur.J. 2012 18 9955 using a reference frequency of 100.0 cm-1

-------
ENTROPY
-------

The entropy contributions are T*S = T*(S(el)+S(vib)+S(rot)+S(trans))
     S(el)   - electronic entropy
     S(vib)  - vibrational entropy
     S(rot)  - rotational entropy
     S(trans)- translational entropy
The entropies will be listed as multiplied by the temperature to get
units of energy

Electronic entropy                ...      0.00000000 Eh      0.00 kcal/mol
Vibrational entropy               ...      0.02430173 Eh     15.25 kcal/mol
Rotational entropy                ...      0.01532731 Eh      9.62 kcal/mol
Translational entropy             ...      0.01970399 Eh     12.36 kcal/mol
-----------------------------------------------------------------------
Final entropy term                ...      0.05933303 Eh     37.23 kcal/mol

In case the symmetry of your molecule has not been determined correctly

                             ****ORCA TERMINATED NORMALLY****
TOTAL RUN TIME: 0 days 0 hours 4 minutes 26 seconds 886 msec
