                         Program Version 6.1.0  -  RELEASE   -
|  1> # Geometry optimization for (AlH3)n cluster
|  2>
|  3> %pal nprocs 24  end
|  4>
|  5> %geom MaxIter 500 end
|  6>
|  7> %cpcm
|  8> 	epsilon 1.95778548766667
|  9> end
| 10>
| 11> %elprop Polar 1 end # invoke raman
| 12>
| 13> ! PBEh-3c
| 14> ! RKS	# closed shell for AlH3
| 15> ! Freq 	# Frequency analysis to check the stabiltity of the structures
| 16>
| 17>
| 18> ! NoPop # population analysis not necessary
| 19>
| 20> ! DEFGRID3
| 21> ! ExtremeSCF
| 22> ! VeryTightOpt
| 23>
| 24>
| 25> ! SmallPrint
| 26>
| 27>
| 28> * xyzFile 0 1 start.xyz # only maingroup elements H and Al so there should be no net spin
| 29>
| 30>                          ****END OF INPUT****
 Total Charge           Charge          ....    0
 Multiplicity           Mult            ....    1
 Number of Electrons    NEL             ....   48
Dispersion correction           -0.004353918
FINAL SINGLE POINT ENERGY      -731.690943014215
Dispersion correction             ... done (  0.1 sec)
Dispersion correction           -0.004366555
FINAL SINGLE POINT ENERGY      -731.691376149596
Dispersion correction             ... done (  0.1 sec)
Dispersion correction           -0.004398017
FINAL SINGLE POINT ENERGY      -731.691857034912
Dispersion correction             ... done (  0.1 sec)
FINAL SINGLE POINT ENERGY      -731.691888296046
FINAL SINGLE POINT ENERGY      -731.691980105377
FINAL SINGLE POINT ENERGY      -731.691995205017
FINAL SINGLE POINT ENERGY      -731.692040215944
FINAL SINGLE POINT ENERGY      -731.692050257030
FINAL SINGLE POINT ENERGY      -731.692057504808
FINAL SINGLE POINT ENERGY      -731.692068006169
FINAL SINGLE POINT ENERGY      -731.692123807132
FINAL SINGLE POINT ENERGY      -731.692126383019
FINAL SINGLE POINT ENERGY      -731.692126986545
FINAL SINGLE POINT ENERGY      -731.692127729967
FINAL SINGLE POINT ENERGY      -731.692128388497
FINAL SINGLE POINT ENERGY      -731.692128799413
FINAL SINGLE POINT ENERGY      -731.692128900486
Dispersion correction             ... done (  0.1 sec)
Dispersion correction           -0.004329192
FINAL SINGLE POINT ENERGY      -731.692128916368
Dispersion correction             ... done (  0.1 sec)
Dispersion correction           -0.004329032
FINAL SINGLE POINT ENERGY      -731.692128924919
Dispersion correction             ... done (  0.1 sec)
                    ***********************HURRAY********************

CARTESIAN COORDINATES (ANGSTROEM)
---------------------------------
  Al    -0.244550    1.532061    2.574966
  Al    -0.000145   -0.000770   -0.101306
  H      0.748648   -1.004263    1.040036
  H     -1.177220   -0.793876   -0.777221
  H     -0.735330    1.012460    1.040202
  H     -1.529221    2.126322    3.258523
  H      0.002748    0.000282    3.242374
  H      1.168503    0.786768   -0.798013
  Al     0.271058   -1.529051    2.577350
  H      1.566974   -2.103910    3.256259
  H     -1.144699   -2.200768    2.433412
  H      1.180175    2.183054    2.423778

 Multiplicity           Mult            ....    1
 Number of Electrons    NEL             ....   48
 Basis Dimension        Dim             ....   72

ORBITAL ENERGIES
----------------

  NO   OCC          E(Eh)            E(eV)
   0   2.0000     -56.617020     -1540.6274
   1   2.0000     -56.616978     -1540.6263
   2   2.0000     -56.616714     -1540.6191
   3   2.0000      -4.358427      -118.5988
   4   2.0000      -4.358419      -118.5986
   5   2.0000      -4.358093      -118.5897
   6   2.0000      -2.849252       -77.5321
   7   2.0000      -2.849202       -77.5307
   8   2.0000      -2.848985       -77.5248
   9   2.0000      -2.847714       -77.4903
  10   2.0000      -2.847663       -77.4889
  11   2.0000      -2.847269       -77.4781
  12   2.0000      -2.843205       -77.3675
  13   2.0000      -2.843200       -77.3674
  14   2.0000      -2.842828       -77.3573
  15   2.0000      -0.593186       -16.1414
  16   2.0000      -0.491241       -13.3674
  17   2.0000      -0.489506       -13.3201
  18   2.0000      -0.392634       -10.6841
  19   2.0000      -0.389136       -10.5889
  20   2.0000      -0.378267       -10.2932
  21   2.0000      -0.370279       -10.0758
  22   2.0000      -0.357521        -9.7286
  23   2.0000      -0.353443        -9.6177
  24   0.0000      -0.000390        -0.0106
  25   0.0000       0.004557         0.1240
  26   0.0000       0.006964         0.1895
  27   0.0000       0.028275         0.7694
  28   0.0000       0.049000         1.3334

-------
TIMINGS
-------

Dispersion correction           -0.004328905
FINAL SINGLE POINT ENERGY      -731.692128938093

DIPOLE MOMENT
-------------

Method             : SCF
Type of density    : Electron Density
Multiplicity       :   1
Irrep              :   0
Energy             :  -731.7077357787999290 Eh
Basis              : AO
                                X                 Y                 Z
Electronic contribution:     -0.004051918       0.001752803       0.091919266
Nuclear contribution   :      0.001302243      -0.000568164      -0.029437302
                        -----------------------------------------
Total Dipole Moment    :     -0.002749674       0.001184639       0.062481964
                        -----------------------------------------
Magnitude (a.u.)       :      0.062553656
Magnitude (Debye)      :      0.158998758

VIBRATIONAL FREQUENCIES
-----------------------

Scaling factor for frequencies =  1.000000000  (already applied!)

     0:       0.00 cm**-1
     1:       0.00 cm**-1
     2:       0.00 cm**-1
     3:       0.00 cm**-1
     4:       0.00 cm**-1
     5:       0.00 cm**-1
     6:     -44.53 cm**-1  ***imaginary mode***
     7:      95.52 cm**-1
     8:     127.44 cm**-1
     9:     235.09 cm**-1
    10:     296.53 cm**-1
    11:     321.21 cm**-1
    12:     429.05 cm**-1
    13:     441.10 cm**-1
    14:     450.99 cm**-1
    15:     502.88 cm**-1
    16:     539.67 cm**-1
    17:     588.69 cm**-1
    18:     680.61 cm**-1
    19:     684.00 cm**-1
    20:     733.21 cm**-1
    21:     761.50 cm**-1
    22:     785.91 cm**-1
    23:     793.97 cm**-1
    24:    1032.04 cm**-1
    25:    1043.99 cm**-1
    26:    1129.19 cm**-1
    27:    1832.96 cm**-1
    28:    1892.77 cm**-1
    29:    1908.71 cm**-1
    30:    2006.85 cm**-1
    31:    2012.45 cm**-1
    32:    2013.74 cm**-1
    33:    2017.69 cm**-1
    34:    2019.13 cm**-1
    35:    2020.85 cm**-1

IR SPECTRUM
-----------

 Mode   freq       eps      Int      T**2         TX        TY        TZ
       cm**-1   L/(mol*cm) km/mol    a.u.
----------------------------------------------------------------------------
  7:     95.52   0.000387    1.96  0.001265  ( 0.002522 -0.000257 -0.035483)
  8:    127.44   0.000484    2.45  0.001186  (-0.033327 -0.008641 -0.000576)
  9:    235.09   0.000817    4.13  0.001085  (-0.000093  0.000361 -0.032930)
 10:    296.53   0.003558   17.98  0.003744  (-0.054691  0.027426  0.000845)
 11:    321.21   0.000087    0.44  0.000085  (-0.000131  0.000108  0.009197)
 12:    429.05   0.001005    5.08  0.000731  ( 0.021684 -0.016155  0.000299)
 13:    441.10   0.000224    1.13  0.000158  ( 0.000213 -0.000221 -0.012576)
 14:    450.99   0.003116   15.75  0.002156  ( 0.000260 -0.000631  0.046426)
 15:    502.88   0.000012    0.06  0.000007  ( 0.002263  0.001399 -0.000490)
 16:    539.67   0.025568  129.21  0.014785  ( 0.087327 -0.084605 -0.000941)
 17:    588.69   0.054839  277.13  0.029070  (-0.000457 -0.000677  0.170497)
 18:    680.61   0.206487  1043.50  0.094675  (-0.011331 -0.307471 -0.002863)
 19:    684.00   0.144106  728.25  0.065746  (-0.002596  0.003190 -0.256376)
 20:    733.21   0.000823    4.16  0.000350  (-0.000002 -0.000623 -0.018705)
 21:    761.50   0.053280  269.25  0.021834  ( 0.082159 -0.122724  0.004776)
 22:    785.91   0.047706  241.09  0.018943  (-0.002604 -0.009995 -0.137244)
 23:    793.97   0.053700  271.38  0.021106  ( 0.092853  0.111575 -0.005968)
 24:   1032.04   0.062493  315.82  0.018896  ( 0.008177 -0.001842 -0.137209)
 25:   1043.99   0.082944  419.16  0.024793  (-0.144997  0.061091 -0.006076)
 26:   1129.19   0.000046    0.23  0.000013  ( 0.001666 -0.000780 -0.003041)
 27:   1832.96   0.007534   38.07  0.001283  ( 0.005142 -0.035428 -0.001016)
 28:   1892.77   0.316768  1600.82  0.052226  ( 0.001111  0.001419  0.228523)
 29:   1908.71   0.319460  1614.42  0.052230  ( 0.028627 -0.226733  0.001590)
 30:   2006.85   0.004749   24.00  0.000739  ( 0.001389 -0.001020 -0.027121)
 31:   2012.45   0.031376  158.56  0.004865  ( 0.060367 -0.034935 -0.000825)
 32:   2013.74   0.005138   25.96  0.000796  ( 0.002628 -0.001497  0.028055)
 33:   2017.69   0.001150    5.81  0.000178  (-0.001748 -0.000282  0.013217)
 34:   2019.13   0.016125   81.49  0.002492  (-0.046760 -0.017479  0.000368)
 35:   2020.85   0.104427  527.73  0.016126  ( 0.120309  0.040638 -0.000171)

--------------------------
THERMOCHEMISTRY AT 298.15K
--------------------------

Temperature         ...   298.15 K
Pressure            ...     1.00 atm
Total Mass          ...    90.02 AMU
Quasi RRHO          ...     True
Cut-Off Frequency   ...     1.00 cm^-1

Throughout the following assumptions are being made:
  (1) The electronic state is orbitally nondegenerate
  (2) There are no thermally accessible electronically excited states
  (3) Hindered rotations indicated by low frequency modes are not
      treated as such but are treated as vibrations and this may
      cause some error
  (4) All equations used are the standard statistical mechanics
      equations for an ideal gas
  (5) All vibrations are strictly harmonic

freq.      95.52  E(vib)   ...       0.47
freq.     127.44  E(vib)   ...       0.43
freq.     235.09  E(vib)   ...       0.32
freq.     296.53  E(vib)   ...       0.27
freq.     321.21  E(vib)   ...       0.25
freq.     429.05  E(vib)   ...       0.18
freq.     441.10  E(vib)   ...       0.17
freq.     450.99  E(vib)   ...       0.17
freq.     502.88  E(vib)   ...       0.14
freq.     539.67  E(vib)   ...       0.12
freq.     588.69  E(vib)   ...       0.10
freq.     680.61  E(vib)   ...       0.08
freq.     684.00  E(vib)   ...       0.07
freq.     733.21  E(vib)   ...       0.06
freq.     761.50  E(vib)   ...       0.06
freq.     785.91  E(vib)   ...       0.05
freq.     793.97  E(vib)   ...       0.05
freq.    1032.04  E(vib)   ...       0.02
freq.    1043.99  E(vib)   ...       0.02
freq.    1129.19  E(vib)   ...       0.01
freq.    1832.96  E(vib)   ...       0.00
freq.    1892.77  E(vib)   ...       0.00
freq.    1908.71  E(vib)   ...       0.00
freq.    2006.85  E(vib)   ...       0.00
freq.    2012.45  E(vib)   ...       0.00
freq.    2013.74  E(vib)   ...       0.00
freq.    2017.69  E(vib)   ...       0.00
freq.    2019.13  E(vib)   ...       0.00
freq.    2020.85  E(vib)   ...       0.00

------------
INNER ENERGY
------------

The inner energy is: U= E(el) + E(ZPE) + E(vib) + E(rot) + E(trans)
    E(el)   - is the total energy from the electronic structure calculation
              = E(kin-el) + E(nuc-el) + E(el-el) + E(nuc-nuc)
    E(ZPE)  - the the zero temperature vibrational energy from the frequency calculation
    E(vib)  - the the finite temperature correction to E(ZPE) due to population
              of excited vibrational states
    E(rot)  - is the rotational thermal energy
    E(trans)- is the translational thermal energy

Summary of contributions to the inner energy U:
Electronic energy                ...   -731.69212894 Eh
Zero point energy                ...      0.06697299 Eh      42.03 kcal/mol
Thermal vibrational correction   ...      0.00483982 Eh       3.04 kcal/mol
Thermal rotational correction    ...      0.00141627 Eh       0.89 kcal/mol
Thermal translational correction ...      0.00141627 Eh       0.89 kcal/mol
-----------------------------------------------------------------------
Total thermal energy                   -731.61748358 Eh

Summary of corrections to the electronic energy:
(perhaps to be used in another calculation)
Total thermal correction                  0.00767237 Eh       4.81 kcal/mol
Non-thermal (ZPE) correction              0.06697299 Eh      42.03 kcal/mol
-----------------------------------------------------------------------
Total correction                          0.07464536 Eh      46.84 kcal/mol

--------
ENTHALPY
--------

The enthalpy is H = U + kB*T
                kB is Boltzmann's constant
Total thermal energy              ...   -731.61748358 Eh
Thermal Enthalpy correction       ...      0.00094421 Eh       0.59 kcal/mol
-----------------------------------------------------------------------
Total Enthalpy                    ...   -731.61653937 Eh

Note: Only C1 symmetry has been detected, increase convergence thresholds
      if your molecule has a higher symmetry. Symmetry factor of 1.0 is
      used for the rotational entropy correction.

Note: Rotational entropy computed according to Herzberg
Infrared and Raman Spectra, Chapter V,1, Van Nostrand Reinhold, 1945
Point Group:  C1, Symmetry Number:   1
Rotational constants in cm-1:     0.104045     0.103128     0.055681

Vibrational entropy computed according to the QRRHO of S. Grimme
Chem.Eur.J. 2012 18 9955 using a reference frequency of 100.0 cm-1

-------
ENTROPY
-------

The entropy contributions are T*S = T*(S(el)+S(vib)+S(rot)+S(trans))
     S(el)   - electronic entropy
     S(vib)  - vibrational entropy
     S(rot)  - rotational entropy
     S(trans)- translational entropy
The entropies will be listed as multiplied by the temperature to get
units of energy

Electronic entropy                ...      0.00000000 Eh      0.00 kcal/mol
Vibrational entropy               ...      0.00791957 Eh      4.97 kcal/mol
Rotational entropy                ...      0.01301506 Eh      8.17 kcal/mol
Translational entropy             ...      0.01872231 Eh     11.75 kcal/mol
-----------------------------------------------------------------------
Final entropy term                ...      0.03965694 Eh     24.89 kcal/mol

In case the symmetry of your molecule has not been determined correctly
or in case you have a reason to use a different symmetry number we print
out the resulting rotational entropy values for sn=1,12:

 non-linear molecules -----------------------------------
|  sn= 1 | S(rot)=       0.01301506 Eh      8.17 kcal/mol|
|  sn= 2 | S(rot)=       0.01236061 Eh      7.76 kcal/mol|
|  sn= 3 | S(rot)=       0.01197777 Eh      7.52 kcal/mol|
|  sn= 4 | S(rot)=       0.01170615 Eh      7.35 kcal/mol|
|  sn= 5 | S(rot)=       0.01149546 Eh      7.21 kcal/mol|
|  sn= 6 | S(rot)=       0.01132332 Eh      7.11 kcal/mol|
|  sn= 7 | S(rot)=       0.01117777 Eh      7.01 kcal/mol|
|  sn= 8 | S(rot)=       0.01105169 Eh      6.94 kcal/mol|
|  sn= 9 | S(rot)=       0.01094048 Eh      6.87 kcal/mol|
|  sn=10 | S(rot)=       0.01084101 Eh      6.80 kcal/mol|
|  sn=11 | S(rot)=       0.01075102 Eh      6.75 kcal/mol|
|  sn=12 | S(rot)=       0.01066886 Eh      6.69 kcal/mol|
 linear molecules ---------------------------------------
|  Dinfh | S(rot)=       0.00805271 Eh      5.05 kcal/mol|
|  Cinfv | S(rot)=       0.00870717 Eh      5.46 kcal/mol|
 --------------------------------------------------------

-------------------
GIBBS FREE ENERGY
-------------------

The Gibbs free energy is G = H - T*S

Total enthalpy                    ...   -731.61653937 Eh
Total entropy correction          ...     -0.03965694 Eh    -24.89 kcal/mol
-----------------------------------------------------------------------
Final Gibbs free energy         ...   -731.65619632 Eh

For completeness - the Gibbs free energy minus the electronic energy
G-E(el)                           ...      0.03593262 Eh     22.55 kcal/mol

                             ****ORCA TERMINATED NORMALLY****
TOTAL RUN TIME: 0 days 0 hours 8 minutes 20 seconds 542 msec
