                         Program Version 6.1.0  -  RELEASE   -
|  1> # Geometry optimization for (AlH3)n cluster
|  2>
|  3> %pal nprocs 24  end
|  4>
|  5> %geom MaxIter 500 end
|  6>
|  7>
|  8> ! PBE def2-SV(P)
|  9> ! RKS	# closed shell for AlH3
| 10> ! D3    #  dispersion correction
| 11> ! Freq 	# Frequency analysis to check the stabiltity of the structures
| 12>
| 13> ! NoPop # population analysis not necessary
| 14>
| 15> ! RI
| 16> ! DEFGRID2
| 17> ! NormalSCF
| 18> ! SloppyOpt
| 19>
| 20> ! SmallPrint
| 21>
| 22>
| 23> * xyzFile 0 1 start.xyz # only maingroup elements H and Al so there should be no net spin
| 24>
| 25>                          ****END OF INPUT****
 Total Charge           Charge          ....    0
 Multiplicity           Mult            ....    1
 Number of Electrons    NEL             ....  112
Dispersion correction           -0.042563764
FINAL SINGLE POINT ENERGY     -1707.228005186454
Dispersion correction             ... done (  0.1 sec)
Dispersion correction           -0.041209951
FINAL SINGLE POINT ENERGY     -1707.273592099302
Dispersion correction             ... done (  0.1 sec)
Dispersion correction           -0.040281854
FINAL SINGLE POINT ENERGY     -1707.319133399045
Dispersion correction             ... done (  0.1 sec)
FINAL SINGLE POINT ENERGY     -1707.386264591094
FINAL SINGLE POINT ENERGY     -1707.479202513947
FINAL SINGLE POINT ENERGY     -1707.566725507293
FINAL SINGLE POINT ENERGY     -1707.644904588072
FINAL SINGLE POINT ENERGY     -1707.783668557213
FINAL SINGLE POINT ENERGY     -1707.813105727382
FINAL SINGLE POINT ENERGY     -1707.831666962699
FINAL SINGLE POINT ENERGY     -1707.989226990180
FINAL SINGLE POINT ENERGY     -1707.991894435297
FINAL SINGLE POINT ENERGY     -1707.993647310589
FINAL SINGLE POINT ENERGY     -1707.994469989879
FINAL SINGLE POINT ENERGY     -1707.995215105328
FINAL SINGLE POINT ENERGY     -1707.995872346417
FINAL SINGLE POINT ENERGY     -1707.996754233614
Dispersion correction             ... done (  0.1 sec)
Dispersion correction           -0.032620493
FINAL SINGLE POINT ENERGY     -1707.997282881650
Dispersion correction             ... done (  0.1 sec)
Dispersion correction           -0.032629708
FINAL SINGLE POINT ENERGY     -1707.997729838052
Dispersion correction             ... done (  0.1 sec)
                    ***********************HURRAY********************

CARTESIAN COORDINATES (ANGSTROEM)
---------------------------------
  Al     1.394716   -4.148637    0.588977
  Al     1.762448   -4.065544    3.893469
  Al     0.942853   -0.909101    1.099985
  Al    -0.655855   -2.108643    3.492536
  Al    -1.096352    0.612137    2.078482
  Al    -0.946666    0.509068    5.240786
  Al    -2.526655   -1.948681    5.936229
  H      0.239032   -5.053242   -0.040067
  H      2.964113   -4.247831    0.292913
  H      1.571887   -5.431475    4.703309
  H      3.046429   -3.110608    3.866121
  H      1.227870   -4.314618    2.293535
  H      0.977085   -2.505687    0.385303
  H      2.192741   -0.159888    0.467810
  H     -0.642496   -0.553864    0.667753
  H     -1.268309    1.413448    3.902033
  H     -1.691867   -0.695731    2.932497
  H      0.520159    0.794008    2.252381
  H     -2.142588    1.576528    1.369652
  H     -2.436034   -0.220494    5.591737
  H     -4.076983   -2.192258    6.231806
  H     -1.275609   -2.244564    6.886353
  H     -2.148860   -2.492759    4.376871
  H      0.405353   -3.127841    4.395087
  H      0.819264   -1.534751    2.629728
  H     -1.135760   -3.079808    2.293493
  H     -0.130444   -0.869971    4.715853
  H     -0.234111    1.198549    6.483099

 Multiplicity           Mult            ....    1
 Number of Electrons    NEL             ....  112
 Basis Dimension        Dim             ....  168

ORBITAL ENERGIES
----------------

  NO   OCC          E(Eh)            E(eV)
   0   2.0000     -55.423970     -1508.1629
   1   2.0000     -55.416000     -1507.9460
   2   2.0000     -55.410926     -1507.8080
   3   2.0000     -55.404508     -1507.6333
   4   2.0000     -55.393451     -1507.3324
   5   2.0000     -55.388071     -1507.1860
   6   2.0000     -55.385107     -1507.1054
   7   2.0000      -3.972147      -108.0876
   8   2.0000      -3.971318      -108.0650
   9   2.0000      -3.964330      -107.8749
  10   2.0000      -3.959509      -107.7437
  11   2.0000      -3.951298      -107.5203
  12   2.0000      -3.943705      -107.3137
  13   2.0000      -3.940660      -107.2308
  14   2.0000      -2.579540       -70.1929
  15   2.0000      -2.579193       -70.1834
  16   2.0000      -2.578721       -70.1706
  17   2.0000      -2.577337       -70.1329
  18   2.0000      -2.574873       -70.0659
  19   2.0000      -2.573716       -70.0344
  20   2.0000      -2.572023       -69.9883
  21   2.0000      -2.571108       -69.9634
  22   2.0000      -2.568089       -69.8813
  23   2.0000      -2.566420       -69.8358
  24   2.0000      -2.565316       -69.8058
  25   2.0000      -2.561495       -69.7018
  26   2.0000      -2.560242       -69.6677
  27   2.0000      -2.557355       -69.5892
  28   2.0000      -2.552404       -69.4544
  29   2.0000      -2.552275       -69.4509
  30   2.0000      -2.550200       -69.3945
  31   2.0000      -2.549225       -69.3679
  32   2.0000      -2.547348       -69.3169
  33   2.0000      -2.544717       -69.2453
  34   2.0000      -2.541565       -69.1595
  35   2.0000      -0.526435       -14.3250
  36   2.0000      -0.476709       -12.9719
  37   2.0000      -0.456346       -12.4178
  38   2.0000      -0.420480       -11.4418
  39   2.0000      -0.412717       -11.2306
  40   2.0000      -0.390356       -10.6221
  41   2.0000      -0.383285       -10.4297
  42   2.0000      -0.344998        -9.3879
  43   2.0000      -0.340031        -9.2527
  44   2.0000      -0.334795        -9.1102
  45   2.0000      -0.319461        -8.6930
  46   2.0000      -0.318679        -8.6717
  47   2.0000      -0.309298        -8.4164
  48   2.0000      -0.295979        -8.0540
  49   2.0000      -0.291085        -7.9208
  50   2.0000      -0.286380        -7.7928
  51   2.0000      -0.282334        -7.6827
  52   2.0000      -0.274976        -7.4825
  53   2.0000      -0.268971        -7.3191
  54   2.0000      -0.265633        -7.2283
  55   2.0000      -0.252142        -6.8611
  56   0.0000      -0.090044        -2.4502
  57   0.0000      -0.072988        -1.9861
  58   0.0000      -0.060812        -1.6548
  59   0.0000      -0.056836        -1.5466
  60   0.0000      -0.046644        -1.2692

-------
TIMINGS
-------

Dispersion correction           -0.032640640
FINAL SINGLE POINT ENERGY     -1707.998116779514

DIPOLE MOMENT
-------------

Method             : SCF
Type of density    : Electron Density
Multiplicity       :   1
Irrep              :   0
Energy             : -1707.9654761394372144 Eh
Basis              : AO
                                X                 Y                 Z
Electronic contribution:     -0.583299629       1.400699825       0.575263074
Nuclear contribution   :      0.137576740      -0.589661455      -0.257065193
                        -----------------------------------------
Total Dipole Moment    :     -0.445722889       0.811038370       0.318197881
                        -----------------------------------------
Magnitude (a.u.)       :      0.978622513
Magnitude (Debye)      :      2.487460747

VIBRATIONAL FREQUENCIES
-----------------------

Scaling factor for frequencies =  1.000000000  (already applied!)

     0:       0.00 cm**-1
     1:       0.00 cm**-1
     2:       0.00 cm**-1
     3:       0.00 cm**-1
     4:       0.00 cm**-1
     5:       0.00 cm**-1
     6:     -19.09 cm**-1  ***imaginary mode***
     7:      36.92 cm**-1
     8:      64.38 cm**-1
     9:      70.47 cm**-1
    10:      85.22 cm**-1
    11:     106.80 cm**-1
    12:     133.88 cm**-1
    13:     145.00 cm**-1
    14:     158.51 cm**-1
    15:     169.81 cm**-1
    16:     186.53 cm**-1
    17:     203.23 cm**-1
    18:     242.12 cm**-1
    19:     260.33 cm**-1
    20:     272.11 cm**-1
    21:     284.78 cm**-1
    22:     301.20 cm**-1
    23:     309.85 cm**-1
    24:     323.49 cm**-1
    25:     359.12 cm**-1
    26:     360.91 cm**-1
    27:     379.98 cm**-1
    28:     398.51 cm**-1
    29:     422.05 cm**-1
    30:     440.60 cm**-1
    31:     463.72 cm**-1
    32:     489.75 cm**-1
    33:     491.95 cm**-1
    34:     508.97 cm**-1
    35:     528.60 cm**-1
    36:     550.14 cm**-1
    37:     562.06 cm**-1
    38:     602.20 cm**-1
    39:     654.84 cm**-1
    40:     664.36 cm**-1
    41:     674.89 cm**-1
    42:     692.80 cm**-1
    43:     699.19 cm**-1
    44:     713.99 cm**-1
    45:     731.13 cm**-1
    46:     744.27 cm**-1
    47:     748.84 cm**-1
    48:     755.33 cm**-1
    49:     778.03 cm**-1
    50:     791.87 cm**-1
    51:     828.96 cm**-1
    52:     855.55 cm**-1
    53:     873.78 cm**-1
    54:     927.91 cm**-1
    55:     950.68 cm**-1
    56:     997.93 cm**-1
    57:    1026.41 cm**-1
    58:    1041.46 cm**-1
    59:    1063.52 cm**-1
    60:    1090.21 cm**-1
    61:    1145.85 cm**-1
    62:    1165.69 cm**-1
    63:    1591.24 cm**-1
    64:    1632.97 cm**-1
    65:    1662.66 cm**-1
    66:    1717.06 cm**-1
    67:    1734.80 cm**-1
    68:    1748.77 cm**-1
    69:    1751.07 cm**-1
    70:    1781.16 cm**-1
    71:    1804.59 cm**-1
    72:    1852.46 cm**-1
    73:    1881.07 cm**-1
    74:    1898.21 cm**-1
    75:    1909.66 cm**-1
    76:    1911.33 cm**-1
    77:    1919.48 cm**-1
    78:    1927.40 cm**-1
    79:    1930.07 cm**-1
    80:    1947.18 cm**-1
    81:    1949.71 cm**-1
    82:    1951.80 cm**-1
    83:    1956.10 cm**-1

IR SPECTRUM
-----------

 Mode   freq       eps      Int      T**2         TX        TY        TZ
       cm**-1   L/(mol*cm) km/mol    a.u.
----------------------------------------------------------------------------
  7:     36.92   0.000035    0.18  0.000299  (-0.004538 -0.014939  0.007442)
  8:     64.38   0.000057    0.29  0.000274  (-0.014256  0.007192 -0.004380)
  9:     70.47   0.000035    0.18  0.000156  ( 0.003263  0.002589  0.011769)
 10:     85.22   0.000439    2.22  0.001609  (-0.009047  0.037627  0.010560)
 11:    106.80   0.000331    1.67  0.000968  ( 0.005082  0.027939  0.012700)
 12:    133.88   0.001281    6.48  0.002987  (-0.028758  0.002320  0.046414)
 13:    145.00   0.000226    1.14  0.000486  (-0.002542  0.002765 -0.021717)
 14:    158.51   0.000154    0.78  0.000303  ( 0.005788  0.011831 -0.011369)
 15:    169.81   0.000214    1.08  0.000393  ( 0.000004  0.012489 -0.015394)
 16:    186.53   0.000303    1.53  0.000506  ( 0.020558 -0.005482  0.007334)
 17:    203.23   0.000941    4.76  0.001446  (-0.037035  0.000974 -0.008547)
 18:    242.12   0.002094   10.58  0.002699  ( 0.013614 -0.036397 -0.034482)
 19:    260.33   0.000339    1.72  0.000407  ( 0.002270 -0.010089 -0.017321)
 20:    272.11   0.000728    3.68  0.000835  (-0.008317  0.014570 -0.023529)
 21:    284.78   0.001123    5.68  0.001231  ( 0.005711 -0.030386 -0.016589)
 22:    301.20   0.003914   19.78  0.004055  ( 0.029557 -0.056399 -0.000933)
 23:    309.85   0.001329    6.72  0.001339  ( 0.034467 -0.003945 -0.011636)
 24:    323.49   0.000597    3.02  0.000576  (-0.013989 -0.009437  0.017064)
 25:    359.12   0.002399   12.12  0.002084  ( 0.042139 -0.015947 -0.007368)
 26:    360.91   0.000410    2.07  0.000354  (-0.014484  0.007456  0.009438)
 27:    379.98   0.002483   12.55  0.002039  (-0.029277  0.029068  0.018365)
 28:    398.51   0.002323   11.74  0.001819  (-0.016881  0.038936  0.004283)
 29:    422.05   0.004888   24.70  0.003614  ( 0.023093  0.006810 -0.055085)
 30:    440.60   0.006021   30.43  0.004265  ( 0.016549 -0.018557 -0.060386)
 31:    463.72   0.009178   46.38  0.006177  ( 0.050908 -0.032269 -0.050434)
 32:    489.75   0.002529   12.78  0.001612  ( 0.000095 -0.001400  0.040119)
 33:    491.95   0.004689   23.70  0.002974  ( 0.008353 -0.042197  0.033526)
 34:    508.97   0.003394   17.15  0.002081  (-0.010228  0.036427 -0.025487)
 35:    528.60   0.030554  154.41  0.018038  ( 0.032779 -0.101694 -0.081373)
 36:    550.14   0.003012   15.22  0.001709  ( 0.007218  0.039169 -0.011067)
 37:    562.06   0.011082   56.01  0.006153  ( 0.006275 -0.072427  0.029462)
 38:    602.20   0.018476   93.37  0.009574  (-0.095272 -0.000175  0.022302)
 39:    654.84   0.087590  442.64  0.041740  (-0.129171  0.140454  0.072993)
 40:    664.36   0.245694  1241.64  0.115408  (-0.169460  0.066886  0.286737)
 41:    674.89   0.039959  201.93  0.018476  (-0.048835 -0.067928 -0.107132)
 42:    692.80   0.148124  748.56  0.066721  (-0.066040  0.226760 -0.104590)
 43:    699.19   0.036815  186.05  0.016431  ( 0.083504 -0.096053 -0.015232)
 44:    713.99   0.018891   95.47  0.008257  (-0.004613  0.090591  0.005353)
 45:    731.13   0.061921  312.92  0.026429  ( 0.061630 -0.046678 -0.143011)
 46:    744.27   0.042436  214.45  0.017793  (-0.008586  0.099602 -0.088310)
 47:    748.84   0.018958   95.80  0.007900  ( 0.006838  0.071096  0.052904)
 48:    755.33   0.015725   79.47  0.006497  ( 0.037507 -0.060431 -0.037922)
 49:    778.03   0.056819  287.14  0.022790  ( 0.004799 -0.136556 -0.064181)
 50:    791.87   0.048769  246.46  0.019219  ( 0.029715  0.031717  0.131644)
 51:    828.96   0.063615  321.49  0.023948  ( 0.070379  0.125050 -0.057943)
 52:    855.55   0.019669   99.40  0.007174  ( 0.058470  0.022390 -0.057045)
 53:    873.78   0.030200  152.62  0.010786  ( 0.064794 -0.079389 -0.016874)
 54:    927.91   0.033288  168.23  0.011195  (-0.007936  0.031522  0.100690)
 55:    950.68   0.020047  101.31  0.006580  (-0.070168  0.014136 -0.038171)
 56:    997.93   0.012062   60.96  0.003772  (-0.056097 -0.005806 -0.024317)
 57:   1026.41   0.033644  170.02  0.010229  ( 0.099232  0.012890 -0.014689)
 58:   1041.46   0.038777  195.96  0.011619  (-0.047171  0.014333  0.095858)
 59:   1063.52   0.031261  157.98  0.009173  ( 0.059502  0.060359  0.044599)
 60:   1090.21   0.008221   41.55  0.002353  (-0.009001 -0.020800  0.042890)
 61:   1145.85   0.038972  196.95  0.010614  (-0.060599  0.082487  0.011720)
 62:   1165.69   0.038572  194.93  0.010326  (-0.027961  0.064675  0.073221)
 63:   1591.24   0.028176  142.39  0.005526  ( 0.065945 -0.032600 -0.010683)
 64:   1632.97   0.145034  732.94  0.027716  ( 0.111256 -0.104219 -0.066910)
 65:   1662.66   0.007274   36.76  0.001365  ( 0.029543  0.016331 -0.015025)
 66:   1717.06   0.053021  267.94  0.009636  ( 0.083571 -0.041889 -0.029957)
 67:   1734.80   0.156694  791.87  0.028187  ( 0.018724  0.143691 -0.084790)
 68:   1748.77   0.261698  1322.51  0.046699  ( 0.102402 -0.068605 -0.177501)
 69:   1751.07   0.038137  192.73  0.006797  (-0.012684 -0.076463 -0.028091)
 70:   1781.16   0.069981  353.66  0.012261  (-0.067001  0.081007 -0.034781)
 71:   1804.59   0.047974  242.44  0.008296  (-0.085196  0.012673 -0.029617)
 72:   1852.46   0.167342  845.68  0.028190  (-0.019632  0.160033 -0.046843)
 73:   1881.07   0.096298  486.65  0.015976  ( 0.011577  0.043223  0.118209)
 74:   1898.21   0.043811  221.40  0.007202  (-0.016567 -0.062811  0.054614)
 75:   1909.66   0.029287  148.01  0.004786  ( 0.037961  0.041258 -0.040530)
 76:   1911.33   0.003312   16.74  0.000541  ( 0.010766 -0.001624  0.020548)
 77:   1919.48   0.032195  162.70  0.005234  (-0.012249 -0.054510  0.045964)
 78:   1927.40   0.044193  223.33  0.007155  ( 0.065806  0.049286  0.019893)
 79:   1930.07   0.033900  171.32  0.005481  ( 0.073410 -0.001224  0.009515)
 80:   1947.18   0.031221  157.78  0.005004  ( 0.061597 -0.020590  0.028027)
 81:   1949.71   0.002341   11.83  0.000375  ( 0.009354  0.010549  0.013263)
 82:   1951.80   0.058764  296.97  0.009396  ( 0.025977  0.043175  0.082805)
 83:   1956.10   0.057708  291.63  0.009206  (-0.022361  0.002318  0.093279)

--------------------------
THERMOCHEMISTRY AT 298.15K
--------------------------

Temperature         ...   298.15 K
Pressure            ...     1.00 atm
Total Mass          ...   210.04 AMU
Quasi RRHO          ...     True
Cut-Off Frequency   ...     1.00 cm^-1

Throughout the following assumptions are being made:
  (1) The electronic state is orbitally nondegenerate
  (2) There are no thermally accessible electronically excited states
  (3) Hindered rotations indicated by low frequency modes are not
      treated as such but are treated as vibrations and this may
      cause some error
  (4) All equations used are the standard statistical mechanics
      equations for an ideal gas
  (5) All vibrations are strictly harmonic

freq.      36.92  E(vib)   ...       0.54
freq.      64.38  E(vib)   ...       0.51
freq.      70.47  E(vib)   ...       0.50
freq.      85.22  E(vib)   ...       0.48
freq.     106.80  E(vib)   ...       0.45
freq.     133.88  E(vib)   ...       0.42
freq.     145.00  E(vib)   ...       0.41
freq.     158.51  E(vib)   ...       0.39
freq.     169.81  E(vib)   ...       0.38
freq.     186.53  E(vib)   ...       0.37
freq.     203.23  E(vib)   ...       0.35
freq.     242.12  E(vib)   ...       0.31
freq.     260.33  E(vib)   ...       0.30
freq.     272.11  E(vib)   ...       0.29
freq.     284.78  E(vib)   ...       0.28
freq.     301.20  E(vib)   ...       0.26
freq.     309.85  E(vib)   ...       0.26
freq.     323.49  E(vib)   ...       0.25
freq.     359.12  E(vib)   ...       0.22
freq.     360.91  E(vib)   ...       0.22
freq.     379.98  E(vib)   ...       0.21
freq.     398.51  E(vib)   ...       0.20
freq.     422.05  E(vib)   ...       0.18
freq.     440.60  E(vib)   ...       0.17
freq.     463.72  E(vib)   ...       0.16
freq.     489.75  E(vib)   ...       0.15
freq.     491.95  E(vib)   ...       0.14
freq.     508.97  E(vib)   ...       0.14
freq.     528.60  E(vib)   ...       0.13
freq.     550.14  E(vib)   ...       0.12
freq.     562.06  E(vib)   ...       0.11
freq.     602.20  E(vib)   ...       0.10
freq.     654.84  E(vib)   ...       0.08
freq.     664.36  E(vib)   ...       0.08
freq.     674.89  E(vib)   ...       0.08
freq.     692.80  E(vib)   ...       0.07
freq.     699.19  E(vib)   ...       0.07
freq.     713.99  E(vib)   ...       0.07
freq.     731.13  E(vib)   ...       0.06
freq.     744.27  E(vib)   ...       0.06
freq.     748.84  E(vib)   ...       0.06
freq.     755.33  E(vib)   ...       0.06
freq.     778.03  E(vib)   ...       0.05
freq.     791.87  E(vib)   ...       0.05
freq.     828.96  E(vib)   ...       0.04
freq.     855.55  E(vib)   ...       0.04
freq.     873.78  E(vib)   ...       0.04
freq.     927.91  E(vib)   ...       0.03
freq.     950.68  E(vib)   ...       0.03
freq.     997.93  E(vib)   ...       0.02
freq.    1026.41  E(vib)   ...       0.02
freq.    1041.46  E(vib)   ...       0.02
freq.    1063.52  E(vib)   ...       0.02
freq.    1090.21  E(vib)   ...       0.02
freq.    1145.85  E(vib)   ...       0.01
freq.    1165.69  E(vib)   ...       0.01
freq.    1591.24  E(vib)   ...       0.00
freq.    1632.97  E(vib)   ...       0.00
freq.    1662.66  E(vib)   ...       0.00
freq.    1717.06  E(vib)   ...       0.00
freq.    1734.80  E(vib)   ...       0.00
freq.    1748.77  E(vib)   ...       0.00
freq.    1751.07  E(vib)   ...       0.00
freq.    1781.16  E(vib)   ...       0.00
freq.    1804.59  E(vib)   ...       0.00
freq.    1852.46  E(vib)   ...       0.00
freq.    1881.07  E(vib)   ...       0.00
freq.    1898.21  E(vib)   ...       0.00
freq.    1909.66  E(vib)   ...       0.00
freq.    1911.33  E(vib)   ...       0.00
freq.    1919.48  E(vib)   ...       0.00
freq.    1927.40  E(vib)   ...       0.00
freq.    1930.07  E(vib)   ...       0.00
freq.    1947.18  E(vib)   ...       0.00
freq.    1949.71  E(vib)   ...       0.00
freq.    1951.80  E(vib)   ...       0.00
freq.    1956.10  E(vib)   ...       0.00

------------
INNER ENERGY
------------

The inner energy is: U= E(el) + E(ZPE) + E(vib) + E(rot) + E(trans)
    E(el)   - is the total energy from the electronic structure calculation
              = E(kin-el) + E(nuc-el) + E(el-el) + E(nuc-nuc)
    E(ZPE)  - the the zero temperature vibrational energy from the frequency calculation
    E(vib)  - the the finite temperature correction to E(ZPE) due to population
              of excited vibrational states
    E(rot)  - is the rotational thermal energy
    E(trans)- is the translational thermal energy

Summary of contributions to the inner energy U:
Electronic energy                ...  -1707.99811678 Eh
Zero point energy                ...      0.15716949 Eh      98.63 kcal/mol
Thermal vibrational correction   ...      0.01607778 Eh      10.09 kcal/mol
Thermal rotational correction    ...      0.00141627 Eh       0.89 kcal/mol
Thermal translational correction ...      0.00141627 Eh       0.89 kcal/mol
-----------------------------------------------------------------------
Total thermal energy                  -1707.82203697 Eh

Summary of corrections to the electronic energy:
(perhaps to be used in another calculation)
Total thermal correction                  0.01891032 Eh      11.87 kcal/mol
Non-thermal (ZPE) correction              0.15716949 Eh      98.63 kcal/mol
-----------------------------------------------------------------------
Total correction                          0.17607981 Eh     110.49 kcal/mol

--------
ENTHALPY
--------

The enthalpy is H = U + kB*T
                kB is Boltzmann's constant
Total thermal energy              ...  -1707.82203697 Eh
Thermal Enthalpy correction       ...      0.00094421 Eh       0.59 kcal/mol
-----------------------------------------------------------------------
Total Enthalpy                    ...  -1707.82109276 Eh

Note: Only C1 symmetry has been detected, increase convergence thresholds
      if your molecule has a higher symmetry. Symmetry factor of 1.0 is
      used for the rotational entropy correction.

Note: Rotational entropy computed according to Herzberg
Infrared and Raman Spectra, Chapter V,1, Van Nostrand Reinhold, 1945
Point Group:  C1, Symmetry Number:   1
Rotational constants in cm-1:     0.022700     0.012724     0.009430

Vibrational entropy computed according to the QRRHO of S. Grimme
Chem.Eur.J. 2012 18 9955 using a reference frequency of 100.0 cm-1

-------
ENTROPY
-------

The entropy contributions are T*S = T*(S(el)+S(vib)+S(rot)+S(trans))
     S(el)   - electronic entropy
     S(vib)  - vibrational entropy

                             ****ORCA TERMINATED NORMALLY****
TOTAL RUN TIME: 0 days 0 hours 9 minutes 10 seconds 62 msec
