                         Program Version 6.1.0  -  RELEASE   -
|  1>
|  2>
|  3> %pal nprocs 64 end
|  4>
|  5> ! PBE 	# functional used for the MOF calculations later (non-expensive)
|  6> ! RKS	# closed shell for SBU
|  7> ! D3BJ  # better geometries at low cost
|  8> ! def-SV(P) def-ECP def2/J  	# Ahlrichs basis set with core potentials ans auxilarry basis set for coulomb integrals
|  9> ! Freq 	# Frequency analysis to check the stabiltity of the structures
| 10>
| 11> ! NoPop # population analysis not necessary
| 12>
| 13> ! RI 		# speed up calculation
| 14> ! DEFGRID2 # medium Grid
| 15> ! TightSCF # tight SCF criteria as basis for Geom.-Opt.
| 16> ! NormalOpt # normal convergence criteria for geometry optimizations
| 17>
| 18> ! SmallPrint
| 19>
| 20>
| 21> * xyzFile 0 1 start.xyz # only maingroup elements H and Al so there should be no net spin
| 22>
| 23>                          ****END OF INPUT****
 Total Charge           Charge          ....    0
 Multiplicity           Mult            ....    1
 Number of Electrons    NEL             ....   94
Dispersion correction           -0.022726021
FINAL SINGLE POINT ENERGY      -663.522269097724
Dispersion correction             ... done (  0.1 sec)
Dispersion correction           -0.022569191
FINAL SINGLE POINT ENERGY      -663.532333054872
Dispersion correction             ... done (  0.0 sec)
Dispersion correction           -0.022538593
FINAL SINGLE POINT ENERGY      -663.535892963959
Dispersion correction             ... done (  0.0 sec)
FINAL SINGLE POINT ENERGY      -663.537243752085
FINAL SINGLE POINT ENERGY      -663.537737948801
FINAL SINGLE POINT ENERGY      -663.537898252094
FINAL SINGLE POINT ENERGY      -663.538028821376
FINAL SINGLE POINT ENERGY      -663.538035211811
Dispersion correction             ... done (  0.0 sec)
Dispersion correction           -0.022588898
FINAL SINGLE POINT ENERGY      -663.538037241784
Dispersion correction             ... done (  0.0 sec)
Dispersion correction           -0.022588276
FINAL SINGLE POINT ENERGY      -663.538037818605
Dispersion correction             ... done (  0.0 sec)
                    ***********************HURRAY********************

CARTESIAN COORDINATES (ANGSTROEM)
---------------------------------
  O     -3.269324   -1.570781   -0.051496
  O      3.634010   -1.176281    0.088385
  O     -3.544684    0.662197   -0.122738
  O      3.604360    1.082666    0.026987
  N     -1.361492    2.210923   -0.127690
  C     -0.655209    1.050410   -0.073818
  C     -1.306873   -0.232236   -0.050635
  C      1.508993   -0.111014    0.009777
  C      0.764950    1.069705   -0.040894
  C     -0.526460   -1.412730    0.000473
  C      0.864724   -1.372856    0.030493
  C     -2.777725   -0.303652   -0.078661
  C      2.997197    0.024892    0.041288
  H      1.305648    2.029453   -0.055642
  H     -1.053199   -2.378188    0.016871
  H      1.459923   -2.295444    0.069781
  H     -0.874835    3.105932   -0.128691
  H     -2.388318    2.145379   -0.140626
  H     -4.250972   -1.465810   -0.075105
  H      4.597886   -0.960964    0.105242

 Multiplicity           Mult            ....    1
 Number of Electrons    NEL             ....   94
 Basis Dimension        Dim             ....  196

ORBITAL ENERGIES
----------------

  NO   OCC          E(Eh)            E(eV)
   0   2.0000     -18.804554      -511.6979
   1   2.0000     -18.804001      -511.6829
   2   2.0000     -18.754355      -510.3319
   3   2.0000     -18.747388      -510.1424
   4   2.0000     -14.008906      -381.2017
   5   2.0000     -10.024773      -272.7879
   6   2.0000     -10.020783      -272.6794
   7   2.0000      -9.960381      -271.0358
   8   2.0000      -9.921766      -269.9850
   9   2.0000      -9.917415      -269.8666
  10   2.0000      -9.910039      -269.6659
  11   2.0000      -9.906155      -269.5602
  12   2.0000      -9.899805      -269.3874
  13   2.0000      -1.006385       -27.3851
  14   2.0000      -1.003323       -27.3018
  15   2.0000      -0.915959       -24.9245
  16   2.0000      -0.913522       -24.8582
  17   2.0000      -0.845584       -23.0095
  18   2.0000      -0.769172       -20.9302
  19   2.0000      -0.705176       -19.1888
  20   2.0000      -0.662638       -18.0313
  21   2.0000      -0.623776       -16.9738
  22   2.0000      -0.576767       -15.6946
  23   2.0000      -0.544565       -14.8184
  24   2.0000      -0.538940       -14.6653
  25   2.0000      -0.491400       -13.3717
  26   2.0000      -0.474375       -12.9084
  27   2.0000      -0.460810       -12.5393
  28   2.0000      -0.433429       -11.7942
  29   2.0000      -0.425016       -11.5653
  30   2.0000      -0.415187       -11.2978
  31   2.0000      -0.407301       -11.0832
  32   2.0000      -0.400886       -10.9087
  33   2.0000      -0.390633       -10.6297
  34   2.0000      -0.383266       -10.4292
  35   2.0000      -0.363245        -9.8844
  36   2.0000      -0.351259        -9.5583
  37   2.0000      -0.348333        -9.4786
  38   2.0000      -0.337765        -9.1910
  39   2.0000      -0.313814        -8.5393
  40   2.0000      -0.289669        -7.8823
  41   2.0000      -0.278196        -7.5701
  42   2.0000      -0.277714        -7.5570
  43   2.0000      -0.240827        -6.5532
  44   2.0000      -0.239762        -6.5243
  45   2.0000      -0.232670        -6.3313
  46   2.0000      -0.188659        -5.1337
  47   0.0000      -0.097901        -2.6640
  48   0.0000      -0.033801        -0.9198
  49   0.0000      -0.024480        -0.6661
  50   0.0000       0.023965         0.6521
  51   0.0000       0.027172         0.7394

-------
TIMINGS
-------

Dispersion correction           -0.022588169
FINAL SINGLE POINT ENERGY      -663.538039059228

DIPOLE MOMENT
-------------

Method             : SCF
Type of density    : Electron Density
Multiplicity       :   1
Irrep              :   0
Energy             :  -663.5154508901281361 Eh
Basis              : AO
                                X                 Y                 Z
Electronic contribution:      0.730117893      -0.320453101       0.025772843
Nuclear contribution   :     -1.019004097       0.179299124      -0.018007764
                        -----------------------------------------
Total Dipole Moment    :     -0.288886205      -0.141153977       0.007765079
                        -----------------------------------------
Magnitude (a.u.)       :      0.321620865
Magnitude (Debye)      :      0.817495271

VIBRATIONAL FREQUENCIES
-----------------------

Scaling factor for frequencies =  1.000000000  (already applied!)

     0:       0.00 cm**-1
     1:       0.00 cm**-1
     2:       0.00 cm**-1
     3:       0.00 cm**-1
     4:       0.00 cm**-1
     5:       0.00 cm**-1
     6:      57.75 cm**-1
     7:      69.92 cm**-1
     8:      90.34 cm**-1
     9:     152.56 cm**-1
    10:     174.89 cm**-1
    11:     246.77 cm**-1
    12:     257.53 cm**-1
    13:     289.92 cm**-1
    14:     298.85 cm**-1
    15:     368.76 cm**-1
    16:     428.54 cm**-1
    17:     447.47 cm**-1
    18:     494.16 cm**-1
    19:     537.66 cm**-1
    20:     549.21 cm**-1
    21:     568.68 cm**-1
    22:     595.67 cm**-1
    23:     635.50 cm**-1
    24:     646.23 cm**-1
    25:     650.45 cm**-1
    26:     708.14 cm**-1
    27:     712.53 cm**-1
    28:     746.67 cm**-1
    29:     751.85 cm**-1
    30:     796.27 cm**-1
    31:     831.38 cm**-1
    32:     897.16 cm**-1
    33:     941.72 cm**-1
    34:     955.84 cm**-1
    35:    1036.99 cm**-1
    36:    1078.98 cm**-1
    37:    1102.26 cm**-1
    38:    1136.54 cm**-1
    39:    1161.57 cm**-1
    40:    1178.00 cm**-1
    41:    1258.83 cm**-1
    42:    1299.50 cm**-1
    43:    1353.36 cm**-1
    44:    1364.17 cm**-1
    45:    1414.47 cm**-1
    46:    1456.03 cm**-1
    47:    1493.16 cm**-1
    48:    1546.06 cm**-1
    49:    1591.95 cm**-1
    50:    1648.39 cm**-1
    51:    1730.00 cm**-1
    52:    1781.64 cm**-1
    53:    3114.27 cm**-1
    54:    3138.24 cm**-1
    55:    3156.08 cm**-1
    56:    3348.32 cm**-1
    57:    3486.10 cm**-1
    58:    3489.43 cm**-1
    59:    3556.65 cm**-1

IR SPECTRUM
-----------

 Mode   freq       eps      Int      T**2         TX        TY        TZ
       cm**-1   L/(mol*cm) km/mol    a.u.
----------------------------------------------------------------------------
  6:     57.75   0.000048    0.24  0.000262  (-0.000527  0.000963  0.016136)
  7:     69.92   0.000608    3.07  0.002713  ( 0.000733  0.000403 -0.052084)
  8:     90.34   0.000001    0.00  0.000002  ( 0.000382 -0.001407 -0.000492)
  9:    152.56   0.000161    0.81  0.000330  ( 0.017946  0.002740 -0.000020)
 10:    174.89   0.001945    9.83  0.003471  ( 0.000740  0.001487 -0.058894)
 11:    246.77   0.004940   24.97  0.006247  ( 0.000616 -0.000104 -0.079038)
 12:    257.53   0.000500    2.53  0.000606  (-0.024055 -0.004709 -0.002282)
 13:    289.92   0.026600  134.43  0.028632  ( 0.002489  0.000603 -0.169190)
 14:    298.85   0.000379    1.92  0.000396  (-0.000788 -0.017136  0.010075)
 15:    368.76   0.001494    7.55  0.001264  ( 0.027594  0.022347 -0.001761)
 16:    428.54   0.001905    9.63  0.001387  (-0.001126  0.001671  0.037193)
 17:    447.47   0.002492   12.59  0.001738  (-0.020281  0.036372 -0.001873)
 18:    494.16   0.004057   20.50  0.002562  ( 0.050016  0.007706  0.000976)
 19:    537.66   0.001115    5.64  0.000647  ( 0.000921 -0.000664 -0.025419)
 20:    549.21   0.000687    3.47  0.000391  ( 0.019762 -0.000025  0.000204)
 21:    568.68   0.000516    2.61  0.000283  (-0.015528  0.006450 -0.000681)
 22:    595.67   0.009615   48.59  0.005037  (-0.001370  0.001755  0.070939)
 23:    635.50   0.004534   22.91  0.002226  (-0.015624  0.044463 -0.002266)
 24:    646.23   0.000023    0.11  0.000011  (-0.001918 -0.000034  0.002698)
 25:    650.45   0.025473  128.73  0.012221  (-0.001447  0.003084  0.110496)
 26:    708.14   0.004069   20.57  0.001793  (-0.000937  0.001412  0.042314)
 27:    712.53   0.020319  102.69  0.008899  (-0.093867 -0.009296 -0.001309)
 28:    746.67   0.001161    5.87  0.000485  ( 0.003484  0.021728 -0.000921)
 29:    751.85   0.015125   76.44  0.006278  ( 0.001882 -0.002236 -0.079179)
 30:    796.27   0.000044    0.22  0.000017  (-0.000203 -0.000104 -0.004166)
 31:    831.38   0.000045    0.23  0.000017  ( 0.000007  0.000176  0.004109)
 32:    897.16   0.001608    8.13  0.000559  (-0.000580  0.000593  0.023635)
 33:    941.72   0.003911   19.76  0.001296  ( 0.019122 -0.030476  0.001239)
 34:    955.84   0.000000    0.00  0.000000  ( 0.000056  0.000103  0.000140)
 35:   1036.99   0.001024    5.18  0.000308  (-0.014843  0.009365 -0.000414)
 36:   1078.98   0.023292  117.71  0.006737  (-0.070162 -0.042590 -0.000097)
 37:   1102.26   0.004110   20.77  0.001164  ( 0.023555 -0.024643  0.001221)
 38:   1136.54   0.007712   38.98  0.002118  (-0.017900 -0.042385  0.000853)
 39:   1161.57   0.077595  392.14  0.020847  (-0.138577  0.040320 -0.004160)
 40:   1178.00   0.050938  257.42  0.013494  ( 0.057149  0.101120 -0.001658)
 41:   1258.83   0.001269    6.41  0.000314  (-0.013711 -0.011246 -0.000044)
 42:   1299.50   0.002592   13.10  0.000622  ( 0.024798 -0.002685  0.000495)
 43:   1353.36   0.025702  129.89  0.005927  ( 0.075622 -0.014253  0.002164)
 44:   1364.17   0.030726  155.27  0.007029  ( 0.057931  0.060601 -0.000425)
 45:   1414.47   0.001795    9.07  0.000396  (-0.019882  0.000633 -0.000462)
 46:   1456.03   0.002297   11.61  0.000492  ( 0.018590 -0.012061  0.001148)
 47:   1493.16   0.013286   67.14  0.002777  (-0.051727 -0.010022 -0.000706)
 48:   1546.06   0.025269  127.70  0.005100  ( 0.054481 -0.046119  0.002281)
 49:   1591.95   0.038359  193.85  0.007519  (-0.006695 -0.086427  0.002211)
 50:   1648.39   0.018645   94.22  0.003530  (-0.022076  0.055120 -0.002048)
 51:   1730.00   0.056744  286.76  0.010236  (-0.073775  0.069135 -0.003661)
 52:   1781.64   0.048629  245.75  0.008518  ( 0.053851  0.074948 -0.000742)
 53:   3114.27   0.000758    3.83  0.000076  (-0.005913  0.006393 -0.000306)
 54:   3138.24   0.000051    0.26  0.000005  ( 0.000365 -0.002211  0.000063)
 55:   3156.08   0.000071    0.36  0.000007  (-0.000895 -0.002492  0.000031)
 56:   3348.32   0.029675  149.96  0.002766  ( 0.051135 -0.012236  0.001102)
 57:   3486.10   0.015523   78.45  0.001390  ( 0.037122 -0.003263  0.000954)
 58:   3489.43   0.015855   80.13  0.001418  (-0.036336 -0.009867 -0.000484)
 59:   3556.65   0.011815   59.71  0.001037  ( 0.017425  0.027073 -0.000156)

--------------------------
THERMOCHEMISTRY AT 298.15K
--------------------------

Temperature         ...   298.15 K
Pressure            ...     1.00 atm
Total Mass          ...   181.15 AMU
Quasi RRHO          ...     True
Cut-Off Frequency   ...     1.00 cm^-1

Throughout the following assumptions are being made:
  (1) The electronic state is orbitally nondegenerate
  (2) There are no thermally accessible electronically excited states
  (3) Hindered rotations indicated by low frequency modes are not
      treated as such but are treated as vibrations and this may
      cause some error
  (4) All equations used are the standard statistical mechanics
      equations for an ideal gas
  (5) All vibrations are strictly harmonic

freq.      57.75  E(vib)   ...       0.51
freq.      69.92  E(vib)   ...       0.50
freq.      90.34  E(vib)   ...       0.47
freq.     152.56  E(vib)   ...       0.40
freq.     174.89  E(vib)   ...       0.38
freq.     246.77  E(vib)   ...       0.31
freq.     257.53  E(vib)   ...       0.30
freq.     289.92  E(vib)   ...       0.27
freq.     298.85  E(vib)   ...       0.26
freq.     368.76  E(vib)   ...       0.21
freq.     428.54  E(vib)   ...       0.18
freq.     447.47  E(vib)   ...       0.17
freq.     494.16  E(vib)   ...       0.14
freq.     537.66  E(vib)   ...       0.12
freq.     549.21  E(vib)   ...       0.12
freq.     568.68  E(vib)   ...       0.11
freq.     595.67  E(vib)   ...       0.10
freq.     635.50  E(vib)   ...       0.09
freq.     646.23  E(vib)   ...       0.09
freq.     650.45  E(vib)   ...       0.08
freq.     708.14  E(vib)   ...       0.07
freq.     712.53  E(vib)   ...       0.07
freq.     746.67  E(vib)   ...       0.06
freq.     751.85  E(vib)   ...       0.06
freq.     796.27  E(vib)   ...       0.05
freq.     831.38  E(vib)   ...       0.04
freq.     897.16  E(vib)   ...       0.03
freq.     941.72  E(vib)   ...       0.03
freq.     955.84  E(vib)   ...       0.03
freq.    1036.99  E(vib)   ...       0.02
freq.    1078.98  E(vib)   ...       0.02
freq.    1102.26  E(vib)   ...       0.02
freq.    1136.54  E(vib)   ...       0.01
freq.    1161.57  E(vib)   ...       0.01
freq.    1178.00  E(vib)   ...       0.01
freq.    1258.83  E(vib)   ...       0.01
freq.    1299.50  E(vib)   ...       0.01
freq.    1353.36  E(vib)   ...       0.01
freq.    1364.17  E(vib)   ...       0.01
freq.    1414.47  E(vib)   ...       0.00
freq.    1456.03  E(vib)   ...       0.00
freq.    1493.16  E(vib)   ...       0.00
freq.    1546.06  E(vib)   ...       0.00
freq.    1591.95  E(vib)   ...       0.00
freq.    1648.39  E(vib)   ...       0.00
freq.    1730.00  E(vib)   ...       0.00
freq.    1781.64  E(vib)   ...       0.00
freq.    3114.27  E(vib)   ...       0.00
freq.    3138.24  E(vib)   ...       0.00
freq.    3156.08  E(vib)   ...       0.00
freq.    3348.32  E(vib)   ...       0.00
freq.    3486.10  E(vib)   ...       0.00
freq.    3489.43  E(vib)   ...       0.00
freq.    3556.65  E(vib)   ...       0.00

------------
INNER ENERGY
------------

The inner energy is: U= E(el) + E(ZPE) + E(vib) + E(rot) + E(trans)
    E(el)   - is the total energy from the electronic structure calculation
              = E(kin-el) + E(nuc-el) + E(el-el) + E(nuc-nuc)
    E(ZPE)  - the the zero temperature vibrational energy from the frequency calculation
    E(vib)  - the the finite temperature correction to E(ZPE) due to population
              of excited vibrational states
    E(rot)  - is the rotational thermal energy
    E(trans)- is the translational thermal energy

Summary of contributions to the inner energy U:
Electronic energy                ...   -663.53803906 Eh
Zero point energy                ...      0.14312220 Eh      89.81 kcal/mol
Thermal vibrational correction   ...      0.00860220 Eh       5.40 kcal/mol
Thermal rotational correction    ...      0.00141627 Eh       0.89 kcal/mol
Thermal translational correction ...      0.00141627 Eh       0.89 kcal/mol
-----------------------------------------------------------------------
Total thermal energy                   -663.38348211 Eh

Summary of corrections to the electronic energy:
(perhaps to be used in another calculation)
Total thermal correction                  0.01143475 Eh       7.18 kcal/mol
Non-thermal (ZPE) correction              0.14312220 Eh      89.81 kcal/mol
-----------------------------------------------------------------------
Total correction                          0.15455695 Eh      96.99 kcal/mol

--------
ENTHALPY
--------

The enthalpy is H = U + kB*T
                kB is Boltzmann's constant
Total thermal energy              ...   -663.38348211 Eh
Thermal Enthalpy correction       ...      0.00094421 Eh       0.59 kcal/mol
-----------------------------------------------------------------------
Total Enthalpy                    ...   -663.38253790 Eh

Note: Only C1 symmetry has been detected, increase convergence thresholds
      if your molecule has a higher symmetry. Symmetry factor of 1.0 is
      used for the rotational entropy correction.

Note: Rotational entropy computed according to Herzberg
Infrared and Raman Spectra, Chapter V,1, Van Nostrand Reinhold, 1945
Point Group:  C1, Symmetry Number:   1
Rotational constants in cm-1:     0.063802     0.014767     0.011991

Vibrational entropy computed according to the QRRHO of S. Grimme
Chem.Eur.J. 2012 18 9955 using a reference frequency of 100.0 cm-1

-------
ENTROPY
-------

The entropy contributions are T*S = T*(S(el)+S(vib)+S(rot)+S(trans))
     S(el)   - electronic entropy
     S(vib)  - vibrational entropy
     S(rot)  - rotational entropy
     S(trans)- translational entropy
The entropies will be listed as multiplied by the temperature to get
units of energy

Electronic entropy                ...      0.00000000 Eh      0.00 kcal/mol
Vibrational entropy               ...      0.01450257 Eh      9.10 kcal/mol
Rotational entropy                ...      0.01488836 Eh      9.34 kcal/mol
Translational entropy             ...      0.01971270 Eh     12.37 kcal/mol
-----------------------------------------------------------------------
Final entropy term                ...      0.04910364 Eh     30.81 kcal/mol

In case the symmetry of your molecule has not been determined correctly
or in case you have a reason to use a different symmetry number we print
out the resulting rotational entropy values for sn=1,12:

 non-linear molecules -----------------------------------
|  sn= 1 | S(rot)=       0.01488836 Eh      9.34 kcal/mol|
|  sn= 2 | S(rot)=       0.01423390 Eh      8.93 kcal/mol|
|  sn= 3 | S(rot)=       0.01385107 Eh      8.69 kcal/mol|
|  sn= 4 | S(rot)=       0.01357945 Eh      8.52 kcal/mol|
|  sn= 5 | S(rot)=       0.01336876 Eh      8.39 kcal/mol|
|  sn= 6 | S(rot)=       0.01319662 Eh      8.28 kcal/mol|

                             ****ORCA TERMINATED NORMALLY****
TOTAL RUN TIME: 0 days 0 hours 2 minutes 40 seconds 138 msec
