                         Program Version 6.1.0  -  RELEASE   -
|  1>
|  2>
|  3> %pal nprocs 64 end
|  4>
|  5> ! PBE 	# functional used for the MOF calculations later (non-expensive)
|  6> ! RKS	# closed shell for SBU
|  7> ! D3BJ  # better geometries at low cost
|  8> ! def-TZVP def-ECP def2/J  	# Ahlrichs basis set triple zeta with core potentials and auxilarry basis set for coulomb integrals
|  9> ! Freq 	# Frequency analysis to check the stabiltity of the structures
| 10>
| 11> ! NoPop # population analysis not necessary
| 12>
| 13> ! RI 		# speed up calculation
| 14> ! DEFGRID3 # dense Grid
| 15> ! TightSCF # tight SCF criteria as basis for Geom.-Opt.
| 16> ! TightOpt # tight convergence criteria for geometry optimizations
| 17>
| 18> ! SmallPrint
| 19>
| 20>
| 21> * xyzFile 0 1 run_loose.xyz # no spin
| 22>
| 23>                          ****END OF INPUT****
 Total Charge           Charge          ....    0
 Multiplicity           Mult            ....    1
 Number of Electrons    NEL             ....   94
Dispersion correction           -0.022588169
FINAL SINGLE POINT ENERGY      -664.283672183961
Dispersion correction             ... done (  0.0 sec)
Dispersion correction           -0.022660095
FINAL SINGLE POINT ENERGY      -664.284407554297
Dispersion correction             ... done (  0.0 sec)
Dispersion correction           -0.022666684
FINAL SINGLE POINT ENERGY      -664.284439316482
Dispersion correction             ... done (  0.0 sec)
FINAL SINGLE POINT ENERGY      -664.284440682069
FINAL SINGLE POINT ENERGY      -664.284450545312
FINAL SINGLE POINT ENERGY      -664.284451431003
Dispersion correction             ... done (  0.0 sec)
Dispersion correction           -0.022660567
FINAL SINGLE POINT ENERGY      -664.284451254935
Dispersion correction             ... done (  0.0 sec)
Dispersion correction           -0.022661065
FINAL SINGLE POINT ENERGY      -664.284451943191
Dispersion correction             ... done (  0.0 sec)
                    ***********************HURRAY********************

CARTESIAN COORDINATES (ANGSTROEM)
---------------------------------
  O     -3.256040   -1.581730   -0.053497
  O      3.620208   -1.180910    0.088669
  O     -3.537498    0.657377   -0.121369
  O      3.593563    1.083033    0.024441
  N     -1.351856    2.210165   -0.125867
  C     -0.654169    1.045782   -0.072990
  C     -1.303768   -0.230095   -0.050423
  C      1.499622   -0.106662    0.009761
  C      0.759055    1.067441   -0.041138
  C     -0.524457   -1.404496    0.001086
  C      0.858710   -1.363375    0.031207
  C     -2.768512   -0.305605   -0.078897
  C      2.984314    0.027220    0.040109
  H      1.290761    2.021055   -0.056769
  H     -1.042562   -2.362659    0.017326
  H      1.447173   -2.277688    0.070979
  H     -0.862601    3.095146   -0.128618
  H     -2.370474    2.165108   -0.139399
  H     -4.229331   -1.484647   -0.076094
  H      4.576463   -0.972860    0.104783

 Multiplicity           Mult            ....    1
 Number of Electrons    NEL             ....   94
 Basis Dimension        Dim             ....  289

ORBITAL ENERGIES
----------------

  NO   OCC          E(Eh)            E(eV)
   0   2.0000     -18.805021      -511.7106
   1   2.0000     -18.804242      -511.6894
   2   2.0000     -18.751408      -510.2518
   3   2.0000     -18.746921      -510.1296
   4   2.0000     -14.008223      -381.1831
   5   2.0000     -10.019596      -272.6471
   6   2.0000     -10.017331      -272.5854
   7   2.0000      -9.954948      -270.8879
   8   2.0000      -9.918907      -269.9072
   9   2.0000      -9.914761      -269.7944
  10   2.0000      -9.904640      -269.5190
  11   2.0000      -9.902445      -269.4592
  12   2.0000      -9.894817      -269.2517
  13   2.0000      -1.024753       -27.8850
  14   2.0000      -1.023442       -27.8493
  15   2.0000      -0.938133       -25.5279
  16   2.0000      -0.937419       -25.5085
  17   2.0000      -0.864046       -23.5119
  18   2.0000      -0.787676       -21.4337
  19   2.0000      -0.722374       -19.6568
  20   2.0000      -0.679713       -18.4959
  21   2.0000      -0.637686       -17.3523
  22   2.0000      -0.588054       -16.0018
  23   2.0000      -0.556827       -15.1520
  24   2.0000      -0.549796       -14.9607
  25   2.0000      -0.501120       -13.6362
  26   2.0000      -0.481558       -13.1039
  27   2.0000      -0.471024       -12.8172
  28   2.0000      -0.447041       -12.1646
  29   2.0000      -0.435555       -11.8520
  30   2.0000      -0.428701       -11.6655
  31   2.0000      -0.415403       -11.3037
  32   2.0000      -0.409289       -11.1373
  33   2.0000      -0.400155       -10.8888
  34   2.0000      -0.392595       -10.6830
  35   2.0000      -0.373584       -10.1657
  36   2.0000      -0.362392        -9.8612
  37   2.0000      -0.357202        -9.7200
  38   2.0000      -0.347434        -9.4542
  39   2.0000      -0.321895        -8.7592
  40   2.0000      -0.298975        -8.1355
  41   2.0000      -0.289335        -7.8732
  42   2.0000      -0.287581        -7.8255
  43   2.0000      -0.249760        -6.7963
  44   2.0000      -0.249744        -6.7959
  45   2.0000      -0.243906        -6.6370
  46   2.0000      -0.198060        -5.3895
  47   0.0000      -0.107991        -2.9386
  48   0.0000      -0.043876        -1.1939
  49   0.0000      -0.036583        -0.9955
  50   0.0000       0.006448         0.1755
  51   0.0000       0.009364         0.2548

-------
TIMINGS
-------

Dispersion correction           -0.022661087
FINAL SINGLE POINT ENERGY      -664.284451979592

DIPOLE MOMENT
-------------

Method             : SCF
Type of density    : Electron Density
Multiplicity       :   1
Irrep              :   0
Energy             :  -664.2617908929948953 Eh
Basis              : AO
                                X                 Y                 Z
Electronic contribution:      0.764275951      -0.384134874       0.026670038
Nuclear contribution   :     -1.001285077       0.186131867      -0.017243886
                        -----------------------------------------
Total Dipole Moment    :     -0.237009126      -0.198003007       0.009426151
                        -----------------------------------------
Magnitude (a.u.)       :      0.308977943
Magnitude (Debye)      :      0.785359517

VIBRATIONAL FREQUENCIES
-----------------------

Scaling factor for frequencies =  1.000000000  (already applied!)

     0:       0.00 cm**-1
     1:       0.00 cm**-1
     2:       0.00 cm**-1
     3:       0.00 cm**-1
     4:       0.00 cm**-1
     5:       0.00 cm**-1
     6:      43.59 cm**-1
     7:      51.85 cm**-1
     8:      74.12 cm**-1
     9:     137.04 cm**-1
    10:     154.01 cm**-1
    11:     221.57 cm**-1
    12:     242.81 cm**-1
    13:     257.86 cm**-1
    14:     297.94 cm**-1
    15:     364.88 cm**-1
    16:     403.56 cm**-1
    17:     444.22 cm**-1
    18:     489.57 cm**-1
    19:     510.99 cm**-1
    20:     546.81 cm**-1
    21:     551.36 cm**-1
    22:     569.06 cm**-1
    23:     601.18 cm**-1
    24:     628.87 cm**-1
    25:     632.02 cm**-1
    26:     659.28 cm**-1
    27:     705.66 cm**-1
    28:     730.38 cm**-1
    29:     740.82 cm**-1
    30:     758.64 cm**-1
    31:     793.83 cm**-1
    32:     850.03 cm**-1
    33:     927.59 cm**-1
    34:     934.43 cm**-1
    35:    1028.24 cm**-1
    36:    1053.02 cm**-1
    37:    1093.23 cm**-1
    38:    1138.05 cm**-1
    39:    1147.92 cm**-1
    40:    1168.77 cm**-1
    41:    1269.71 cm**-1
    42:    1286.77 cm**-1
    43:    1330.41 cm**-1
    44:    1337.21 cm**-1
    45:    1383.68 cm**-1
    46:    1438.03 cm**-1
    47:    1481.78 cm**-1
    48:    1530.61 cm**-1
    49:    1572.35 cm**-1
    50:    1619.81 cm**-1
    51:    1685.68 cm**-1
    52:    1731.70 cm**-1
    53:    3114.75 cm**-1
    54:    3141.87 cm**-1
    55:    3160.52 cm**-1
    56:    3424.52 cm**-1
    57:    3624.21 cm**-1
    58:    3632.47 cm**-1
    59:    3637.42 cm**-1

IR SPECTRUM
-----------

 Mode   freq       eps      Int      T**2         TX        TY        TZ
       cm**-1   L/(mol*cm) km/mol    a.u.
----------------------------------------------------------------------------
  6:     43.59   0.000685    3.46  0.004902  (-0.000570 -0.002737  0.069956)
  7:     51.85   0.002647   13.38  0.015932  ( 0.001859  0.001351 -0.126202)
  8:     74.12   0.000027    0.14  0.000113  ( 0.000070 -0.001235  0.010553)
  9:    137.04   0.009050   45.73  0.020608  ( 0.002390  0.002002 -0.143520)
 10:    154.01   0.000150    0.76  0.000304  (-0.017328 -0.000257 -0.001806)
 11:    221.57   0.017986   90.90  0.025332  (-0.002068 -0.000376  0.159146)
 12:    242.81   0.003365   17.01  0.004325  ( 0.000450  0.000869 -0.065760)
 13:    257.86   0.000521    2.63  0.000630  ( 0.024578  0.003869 -0.003376)
 14:    297.94   0.000302    1.52  0.000316  (-0.000966 -0.017692  0.001401)
 15:    364.88   0.001390    7.03  0.001189  ( 0.027956  0.020183 -0.000536)
 16:    403.56   0.002768   13.99  0.002141  (-0.001220  0.001708  0.046218)
 17:    444.22   0.002549   12.88  0.001791  (-0.019616  0.037450 -0.001829)
 18:    489.57   0.003568   18.03  0.002275  ( 0.046722  0.009534  0.000825)
 19:    510.99   0.000786    3.97  0.000480  ( 0.000816 -0.000821 -0.021883)
 20:    546.81   0.000586    2.96  0.000335  ( 0.018263  0.000955 -0.000297)
 21:    551.36   0.011724   59.25  0.006635  (-0.001468  0.002152  0.081417)
 22:    569.06   0.000451    2.28  0.000248  (-0.012568  0.009437 -0.000737)
 23:    601.18   0.018948   95.75  0.009836  (-0.002477  0.002848  0.099103)
 24:    628.87   0.003850   19.46  0.001910  ( 0.015034 -0.040851  0.003946)
 25:    632.02   0.006690   33.81  0.003303  ( 0.000192  0.002717  0.057409)
 26:    659.28   0.001331    6.73  0.000630  ( 0.000589 -0.000621 -0.025087)
 27:    705.66   0.017123   86.53  0.007572  (-0.086410 -0.010178 -0.001377)
 28:    730.38   0.016127   81.50  0.006890  ( 0.001902 -0.002431 -0.082951)
 29:    740.82   0.000664    3.36  0.000280  (-0.004102  0.016206 -0.000644)
 30:    758.64   0.000045    0.23  0.000018  (-0.000405  0.000165  0.004265)
 31:    793.83   0.000257    1.30  0.000101  ( 0.000230 -0.000288 -0.010044)
 32:    850.03   0.001747    8.83  0.000641  ( 0.000716 -0.000684 -0.025306)
 33:    927.59   0.000019    0.09  0.000006  ( 0.000104 -0.000081 -0.002507)
 34:    934.43   0.007724   39.03  0.002580  ( 0.025001 -0.044175  0.001747)
 35:   1028.24   0.002516   12.71  0.000764  (-0.010061  0.025721 -0.000861)
 36:   1053.02   0.044157  223.15  0.013086  (-0.102765 -0.050246 -0.000747)
 37:   1093.23   0.014249   72.01  0.004067  ( 0.040524 -0.049189  0.002362)
 38:   1138.05   0.031499  159.18  0.008637  (-0.047051  0.080078 -0.003341)
 39:   1147.92   0.054430  275.07  0.014797  (-0.121136 -0.010821 -0.002429)
 40:   1168.77   0.033338  168.48  0.008901  (-0.050067 -0.079957  0.001144)
 41:   1269.71   0.001079    5.45  0.000265  (-0.012339 -0.010632 -0.000012)
 42:   1286.77   0.003113   15.73  0.000755  ( 0.026778  0.006141  0.000314)
 43:   1330.41   0.014236   71.94  0.003339  (-0.035491  0.045553 -0.002117)
 44:   1337.21   0.037020  187.08  0.008639  (-0.080771 -0.045988 -0.000576)
 45:   1383.68   0.000210    1.06  0.000047  (-0.006869 -0.000348 -0.000157)
 46:   1438.03   0.006932   35.03  0.001504  ( 0.026026 -0.028706  0.001700)
 47:   1481.78   0.007872   39.78  0.001658  ( 0.038283  0.013859  0.000341)
 48:   1530.61   0.023467  118.59  0.004784  ( 0.060796 -0.032932  0.001956)
 49:   1572.35   0.044752  226.16  0.008882  ( 0.001706 -0.094197  0.002468)
 50:   1619.81   0.014924   75.42  0.002875  (-0.018566  0.050272 -0.001806)
 51:   1685.68   0.063678  321.80  0.011789  (-0.084330  0.068283 -0.003790)
 52:   1731.70   0.056441  285.23  0.010171  ( 0.063059  0.078702 -0.000766)
 53:   3114.75   0.000872    4.41  0.000087  (-0.007040  0.006137 -0.000335)
 54:   3141.87   0.000076    0.39  0.000008  ( 0.001992 -0.001899  0.000095)
 55:   3160.52   0.000055    0.28  0.000005  (-0.001464 -0.001824  0.000015)
 56:   3424.52   0.025285  127.78  0.002304  (-0.046042  0.013521 -0.001161)
 57:   3624.21   0.014741   74.50  0.001269  ( 0.022805  0.027372 -0.000169)
 58:   3632.47   0.016377   82.76  0.001407  (-0.037250  0.004292 -0.000971)
 59:   3637.42   0.015208   76.85  0.001305  ( 0.035138  0.008356  0.000487)

--------------------------
THERMOCHEMISTRY AT 298.15K
--------------------------

Temperature         ...   298.15 K
Pressure            ...     1.00 atm
Total Mass          ...   181.15 AMU
Quasi RRHO          ...     True
Cut-Off Frequency   ...     1.00 cm^-1

Throughout the following assumptions are being made:
  (1) The electronic state is orbitally nondegenerate
  (2) There are no thermally accessible electronically excited states
  (3) Hindered rotations indicated by low frequency modes are not
      treated as such but are treated as vibrations and this may
      cause some error
  (4) All equations used are the standard statistical mechanics
      equations for an ideal gas
  (5) All vibrations are strictly harmonic

freq.      43.59  E(vib)   ...       0.53
freq.      51.85  E(vib)   ...       0.52
freq.      74.12  E(vib)   ...       0.49
freq.     137.04  E(vib)   ...       0.42
freq.     154.01  E(vib)   ...       0.40
freq.     221.57  E(vib)   ...       0.33
freq.     242.81  E(vib)   ...       0.31
freq.     257.86  E(vib)   ...       0.30
freq.     297.94  E(vib)   ...       0.27
freq.     364.88  E(vib)   ...       0.22
freq.     403.56  E(vib)   ...       0.19
freq.     444.22  E(vib)   ...       0.17
freq.     489.57  E(vib)   ...       0.15
freq.     510.99  E(vib)   ...       0.14
freq.     546.81  E(vib)   ...       0.12
freq.     551.36  E(vib)   ...       0.12
freq.     569.06  E(vib)   ...       0.11
freq.     601.18  E(vib)   ...       0.10
freq.     628.87  E(vib)   ...       0.09
freq.     632.02  E(vib)   ...       0.09
freq.     659.28  E(vib)   ...       0.08
freq.     705.66  E(vib)   ...       0.07
freq.     730.38  E(vib)   ...       0.06
freq.     740.82  E(vib)   ...       0.06
freq.     758.64  E(vib)   ...       0.06
freq.     793.83  E(vib)   ...       0.05
freq.     850.03  E(vib)   ...       0.04
freq.     927.59  E(vib)   ...       0.03
freq.     934.43  E(vib)   ...       0.03
freq.    1028.24  E(vib)   ...       0.02
freq.    1053.02  E(vib)   ...       0.02
freq.    1093.23  E(vib)   ...       0.02
freq.    1138.05  E(vib)   ...       0.01
freq.    1147.92  E(vib)   ...       0.01
freq.    1168.77  E(vib)   ...       0.01
freq.    1269.71  E(vib)   ...       0.01
freq.    1286.77  E(vib)   ...       0.01
freq.    1330.41  E(vib)   ...       0.01
freq.    1337.21  E(vib)   ...       0.01
freq.    1383.68  E(vib)   ...       0.00
freq.    1438.03  E(vib)   ...       0.00
freq.    1481.78  E(vib)   ...       0.00
freq.    1530.61  E(vib)   ...       0.00
freq.    1572.35  E(vib)   ...       0.00
freq.    1619.81  E(vib)   ...       0.00
freq.    1685.68  E(vib)   ...       0.00
freq.    1731.70  E(vib)   ...       0.00
freq.    3114.75  E(vib)   ...       0.00
freq.    3141.87  E(vib)   ...       0.00
freq.    3160.52  E(vib)   ...       0.00
freq.    3424.52  E(vib)   ...       0.00
freq.    3624.21  E(vib)   ...       0.00
freq.    3632.47  E(vib)   ...       0.00
freq.    3637.42  E(vib)   ...       0.00

------------
INNER ENERGY
------------

The inner energy is: U= E(el) + E(ZPE) + E(vib) + E(rot) + E(trans)
    E(el)   - is the total energy from the electronic structure calculation
              = E(kin-el) + E(nuc-el) + E(el-el) + E(nuc-nuc)
    E(ZPE)  - the the zero temperature vibrational energy from the frequency calculation
    E(vib)  - the the finite temperature correction to E(ZPE) due to population
              of excited vibrational states
    E(rot)  - is the rotational thermal energy
    E(trans)- is the translational thermal energy

Summary of contributions to the inner energy U:
Electronic energy                ...   -664.28445198 Eh
Zero point energy                ...      0.14205906 Eh      89.14 kcal/mol
Thermal vibrational correction   ...      0.00906346 Eh       5.69 kcal/mol
Thermal rotational correction    ...      0.00141627 Eh       0.89 kcal/mol
Thermal translational correction ...      0.00141627 Eh       0.89 kcal/mol
-----------------------------------------------------------------------
Total thermal energy                   -664.13049691 Eh

Summary of corrections to the electronic energy:
(perhaps to be used in another calculation)
Total thermal correction                  0.01189600 Eh       7.46 kcal/mol
Non-thermal (ZPE) correction              0.14205906 Eh      89.14 kcal/mol
-----------------------------------------------------------------------
Total correction                          0.15395507 Eh      96.61 kcal/mol

--------
ENTHALPY
--------

The enthalpy is H = U + kB*T
                kB is Boltzmann's constant
Total thermal energy              ...   -664.13049691 Eh
Thermal Enthalpy correction       ...      0.00094421 Eh       0.59 kcal/mol
-----------------------------------------------------------------------
Total Enthalpy                    ...   -664.12955270 Eh

Note: Only C1 symmetry has been detected, increase convergence thresholds
      if your molecule has a higher symmetry. Symmetry factor of 1.0 is
      used for the rotational entropy correction.

Note: Rotational entropy computed according to Herzberg
Infrared and Raman Spectra, Chapter V,1, Van Nostrand Reinhold, 1945
Point Group:  C1, Symmetry Number:   1
Rotational constants in cm-1:     0.063870     0.014874     0.012065

Vibrational entropy computed according to the QRRHO of S. Grimme
Chem.Eur.J. 2012 18 9955 using a reference frequency of 100.0 cm-1

-------
ENTROPY
-------

The entropy contributions are T*S = T*(S(el)+S(vib)+S(rot)+S(trans))
     S(el)   - electronic entropy
     S(vib)  - vibrational entropy
     S(rot)  - rotational entropy
     S(trans)- translational entropy
The entropies will be listed as multiplied by the temperature to get
units of energy

Electronic entropy                ...      0.00000000 Eh      0.00 kcal/mol
Vibrational entropy               ...      0.01547524 Eh      9.71 kcal/mol
Rotational entropy                ...      0.01488155 Eh      9.34 kcal/mol
Translational entropy             ...      0.01971270 Eh     12.37 kcal/mol
-----------------------------------------------------------------------
Final entropy term                ...      0.05006950 Eh     31.42 kcal/mol

In case the symmetry of your molecule has not been determined correctly
or in case you have a reason to use a different symmetry number we print
out the resulting rotational entropy values for sn=1,12:

 non-linear molecules -----------------------------------
|  sn= 1 | S(rot)=       0.01488155 Eh      9.34 kcal/mol|
|  sn= 2 | S(rot)=       0.01422709 Eh      8.93 kcal/mol|
|  sn= 3 | S(rot)=       0.01384426 Eh      8.69 kcal/mol|
|  sn= 4 | S(rot)=       0.01357264 Eh      8.52 kcal/mol|
|  sn= 5 | S(rot)=       0.01336195 Eh      8.38 kcal/mol|
|  sn= 6 | S(rot)=       0.01318981 Eh      8.28 kcal/mol|

                             ****ORCA TERMINATED NORMALLY****
TOTAL RUN TIME: 0 days 0 hours 3 minutes 7 seconds 237 msec
