                         Program Version 6.1.0  -  RELEASE   -
|  1> # Geometry optimization for (AlH3)n cluster
|  2>
|  3> %pal nprocs 24  end
|  4>
|  5> %geom MaxIter 500 end
|  6>
|  7> %cpcm
|  8> 	epsilon 1.95778548766667
|  9> end
| 10>
| 11> %elprop Polar 1 end # invoke raman
| 12>
| 13> ! PBEh-3c
| 14> ! RKS	# closed shell for AlH3
| 15> ! Freq 	# Frequency analysis to check the stabiltity of the structures
| 16>
| 17>
| 18> ! NoPop # population analysis not necessary
| 19>
| 20> ! DEFGRID3
| 21> ! ExtremeSCF
| 22> ! VeryTightOpt
| 23>
| 24>
| 25> ! SmallPrint
| 26>
| 27>
| 28> * xyzFile 0 1 start.xyz # only maingroup elements H and Al so there should be no net spin
| 29>
| 30>                          ****END OF INPUT****
 Total Charge           Charge          ....    0
 Multiplicity           Mult            ....    1
 Number of Electrons    NEL             ....   48
Dispersion correction           -0.004338730
FINAL SINGLE POINT ENERGY      -731.689005167330
Dispersion correction             ... done (  0.1 sec)
Dispersion correction           -0.004342525
FINAL SINGLE POINT ENERGY      -731.689763681703
Dispersion correction             ... done (  0.1 sec)
Dispersion correction           -0.004354965
FINAL SINGLE POINT ENERGY      -731.691422484227
Dispersion correction             ... done (  0.1 sec)
FINAL SINGLE POINT ENERGY      -731.691813200861
FINAL SINGLE POINT ENERGY      -731.691953614687
FINAL SINGLE POINT ENERGY      -731.692091958983
FINAL SINGLE POINT ENERGY      -731.692112139902
FINAL SINGLE POINT ENERGY      -731.692120518588
FINAL SINGLE POINT ENERGY      -731.692126170502
FINAL SINGLE POINT ENERGY      -731.692130210941
FINAL SINGLE POINT ENERGY      -731.692207123881
FINAL SINGLE POINT ENERGY      -731.692207231065
FINAL SINGLE POINT ENERGY      -731.692207348130
FINAL SINGLE POINT ENERGY      -731.692207440278
FINAL SINGLE POINT ENERGY      -731.692207485955
FINAL SINGLE POINT ENERGY      -731.692207505632
FINAL SINGLE POINT ENERGY      -731.692207520347
Dispersion correction             ... done (  0.1 sec)
Dispersion correction           -0.004332835
FINAL SINGLE POINT ENERGY      -731.692207536932
Dispersion correction             ... done (  0.1 sec)
Dispersion correction           -0.004332847
FINAL SINGLE POINT ENERGY      -731.692207547615
Dispersion correction             ... done (  0.1 sec)
                    ***********************HURRAY********************

CARTESIAN COORDINATES (ANGSTROEM)
---------------------------------
  Al    -0.274087    1.484184    2.585809
  Al    -0.036127    0.046839   -0.117394
  H      0.665963   -0.957336    1.050964
  H     -1.282354   -0.700282   -0.719497
  H     -0.673707    1.174977    0.971946
  H     -1.475366    2.298496    3.189119
  H     -0.449839   -0.102635    3.142203
  H      1.162395    0.717283   -0.882094
  Al     0.250285   -1.539441    2.585303
  H      1.610273   -1.756206    3.343188
  H     -0.945463   -2.547700    2.420324
  H      1.264557    1.817511    2.622600

 Multiplicity           Mult            ....    1
 Number of Electrons    NEL             ....   48
 Basis Dimension        Dim             ....   72

ORBITAL ENERGIES
----------------

  NO   OCC          E(Eh)            E(eV)
   0   2.0000     -56.617053     -1540.6283
   1   2.0000     -56.616981     -1540.6264
   2   2.0000     -56.616863     -1540.6232
   3   2.0000      -4.358488      -118.6005
   4   2.0000      -4.358294      -118.5952
   5   2.0000      -4.358243      -118.5938
   6   2.0000      -2.849263       -77.5324
   7   2.0000      -2.849184       -77.5302
   8   2.0000      -2.849092       -77.5277
   9   2.0000      -2.847745       -77.4911
  10   2.0000      -2.847515       -77.4848
  11   2.0000      -2.847451       -77.4831
  12   2.0000      -2.843317       -77.3706
  13   2.0000      -2.843040       -77.3630
  14   2.0000      -2.842992       -77.3617
  15   2.0000      -0.593390       -16.1470
  16   2.0000      -0.492390       -13.3986
  17   2.0000      -0.488127       -13.2826
  18   2.0000      -0.393009       -10.6943
  19   2.0000      -0.388934       -10.5834
  20   2.0000      -0.378396       -10.2967
  21   2.0000      -0.370393       -10.0789
  22   2.0000      -0.355634        -9.6773
  23   2.0000      -0.355078        -9.6622
  24   0.0000      -0.000328        -0.0089
  25   0.0000       0.002922         0.0795
  26   0.0000       0.008426         0.2293
  27   0.0000       0.028889         0.7861
  28   0.0000       0.049447         1.3455

-------
TIMINGS
-------

Dispersion correction           -0.004332852
FINAL SINGLE POINT ENERGY      -731.692207549939

DIPOLE MOMENT
-------------

Method             : SCF
Type of density    : Electron Density
Multiplicity       :   1
Irrep              :   0
Energy             :  -731.7078254144669245 Eh
Basis              : AO
                                X                 Y                 Z
Electronic contribution:     -0.158242247       0.071651355       0.055825103
Nuclear contribution   :      0.049160098      -0.026776412      -0.019578406
                        -----------------------------------------
Total Dipole Moment    :     -0.109082149       0.044874943       0.036246697
                        -----------------------------------------
Magnitude (a.u.)       :      0.123395700
Magnitude (Debye)      :      0.313646942

VIBRATIONAL FREQUENCIES
-----------------------

Scaling factor for frequencies =  1.000000000  (already applied!)

     0:       0.00 cm**-1
     1:       0.00 cm**-1
     2:       0.00 cm**-1
     3:       0.00 cm**-1
     4:       0.00 cm**-1
     5:       0.00 cm**-1
     6:      56.86 cm**-1
     7:      90.39 cm**-1
     8:     118.65 cm**-1
     9:     242.31 cm**-1
    10:     287.34 cm**-1
    11:     327.29 cm**-1
    12:     435.05 cm**-1
    13:     437.27 cm**-1
    14:     450.43 cm**-1
    15:     506.39 cm**-1
    16:     553.95 cm**-1
    17:     570.23 cm**-1
    18:     680.93 cm**-1
    19:     682.61 cm**-1
    20:     732.48 cm**-1
    21:     764.47 cm**-1
    22:     777.47 cm**-1
    23:     804.99 cm**-1
    24:    1002.87 cm**-1
    25:    1070.62 cm**-1
    26:    1136.96 cm**-1
    27:    1830.13 cm**-1
    28:    1890.46 cm**-1
    29:    1908.28 cm**-1
    30:    2003.60 cm**-1
    31:    2011.40 cm**-1
    32:    2013.71 cm**-1
    33:    2018.42 cm**-1
    34:    2019.87 cm**-1
    35:    2020.84 cm**-1

IR SPECTRUM
-----------

 Mode   freq       eps      Int      T**2         TX        TY        TZ
       cm**-1   L/(mol*cm) km/mol    a.u.
----------------------------------------------------------------------------
  6:     56.86   0.000296    1.49  0.001622  (-0.001848 -0.018399  0.035776)
  7:     90.39   0.001296    6.55  0.004473  ( 0.065905 -0.007964 -0.008128)
  8:    118.65   0.000133    0.67  0.000349  (-0.002794 -0.016301 -0.008663)
  9:    242.31   0.000589    2.98  0.000759  (-0.003015  0.014359 -0.023321)
 10:    287.34   0.002973   15.02  0.003229  (-0.046978  0.025289  0.019550)
 11:    327.29   0.000985    4.98  0.000939  (-0.027314  0.010394  0.009241)
 12:    435.05   0.000519    2.62  0.000372  ( 0.013289 -0.010657 -0.009065)
 13:    437.27   0.000619    3.13  0.000442  ( 0.002741 -0.011686  0.017248)
 14:    450.43   0.002455   12.41  0.001701  ( 0.003914 -0.020843  0.035373)
 15:    506.39   0.000298    1.51  0.000184  ( 0.001393 -0.007548  0.011181)
 16:    553.95   0.035947  181.66  0.020250  ( 0.101397 -0.080219 -0.059448)
 17:    570.23   0.031568  159.53  0.017276  ( 0.013520 -0.067369  0.112047)
 18:    680.93   0.190632  963.38  0.087365  (-0.018457 -0.281455 -0.088356)
 19:    682.61   0.182682  923.20  0.083515  (-0.031450  0.083941 -0.274736)
 20:    732.48   0.001011    5.11  0.000431  (-0.018920  0.003504  0.007773)
 21:    764.47   0.050546  255.44  0.020633  ( 0.010626 -0.073783  0.122787)
 22:    777.47   0.061330  309.94  0.024617  ( 0.003301 -0.135479 -0.079065)
 23:    804.99   0.027836  140.67  0.010791  (-0.088126 -0.049810 -0.023321)
 24:   1002.87   0.089247  451.02  0.027771  ( 0.149210 -0.056366 -0.048272)
 25:   1070.62   0.050072  253.05  0.014595  (-0.010366  0.061198 -0.103646)
 26:   1136.96   0.011529   58.26  0.003164  ( 0.051873 -0.015371 -0.015405)
 27:   1830.13   0.010156   51.32  0.001732  (-0.003712  0.019339 -0.036660)
 28:   1890.46   0.309096  1562.05  0.051023  (-0.023069  0.191391  0.117732)
 29:   1908.28   0.323507  1634.87  0.052904  (-0.021215  0.118108 -0.196224)
 30:   2003.60   0.015303   77.34  0.002384  (-0.037527  0.025221  0.018417)
 31:   2011.40   0.010042   50.75  0.001558  ( 0.038607 -0.004035 -0.007159)
 32:   2013.71   0.010075   50.92  0.001561  (-0.002994  0.020399 -0.033709)
 33:   2018.42   0.032821  165.87  0.005074  ( 0.057356  0.038613  0.017140)
 34:   2019.87   0.000833    4.21  0.000129  ( 0.007126 -0.004499  0.007594)
 35:   2020.84   0.093547  472.75  0.014446  (-0.117862 -0.023533 -0.000734)

--------------------------
THERMOCHEMISTRY AT 298.15K
--------------------------

Temperature         ...   298.15 K
Pressure            ...     1.00 atm
Total Mass          ...    90.02 AMU
Quasi RRHO          ...     True
Cut-Off Frequency   ...     1.00 cm^-1

Throughout the following assumptions are being made:
  (1) The electronic state is orbitally nondegenerate
  (2) There are no thermally accessible electronically excited states
  (3) Hindered rotations indicated by low frequency modes are not
      treated as such but are treated as vibrations and this may
      cause some error
  (4) All equations used are the standard statistical mechanics
      equations for an ideal gas
  (5) All vibrations are strictly harmonic

freq.      56.86  E(vib)   ...       0.51
freq.      90.39  E(vib)   ...       0.47
freq.     118.65  E(vib)   ...       0.44
freq.     242.31  E(vib)   ...       0.31
freq.     287.34  E(vib)   ...       0.27
freq.     327.29  E(vib)   ...       0.24
freq.     435.05  E(vib)   ...       0.17
freq.     437.27  E(vib)   ...       0.17
freq.     450.43  E(vib)   ...       0.17
freq.     506.39  E(vib)   ...       0.14
freq.     553.95  E(vib)   ...       0.12
freq.     570.23  E(vib)   ...       0.11
freq.     680.93  E(vib)   ...       0.08
freq.     682.61  E(vib)   ...       0.08
freq.     732.48  E(vib)   ...       0.06
freq.     764.47  E(vib)   ...       0.06
freq.     777.47  E(vib)   ...       0.05
freq.     804.99  E(vib)   ...       0.05
freq.    1002.87  E(vib)   ...       0.02
freq.    1070.62  E(vib)   ...       0.02
freq.    1136.96  E(vib)   ...       0.01
freq.    1830.13  E(vib)   ...       0.00
freq.    1890.46  E(vib)   ...       0.00
freq.    1908.28  E(vib)   ...       0.00
freq.    2003.60  E(vib)   ...       0.00
freq.    2011.40  E(vib)   ...       0.00
freq.    2013.71  E(vib)   ...       0.00
freq.    2018.42  E(vib)   ...       0.00
freq.    2019.87  E(vib)   ...       0.00
freq.    2020.84  E(vib)   ...       0.00

------------
INNER ENERGY
------------

The inner energy is: U= E(el) + E(ZPE) + E(vib) + E(rot) + E(trans)
    E(el)   - is the total energy from the electronic structure calculation
              = E(kin-el) + E(nuc-el) + E(el-el) + E(nuc-nuc)
    E(ZPE)  - the the zero temperature vibrational energy from the frequency calculation
    E(vib)  - the the finite temperature correction to E(ZPE) due to population
              of excited vibrational states
    E(rot)  - is the rotational thermal energy
    E(trans)- is the translational thermal energy

Summary of contributions to the inner energy U:
Electronic energy                ...   -731.69220755 Eh
Zero point energy                ...      0.06708354 Eh      42.10 kcal/mol
Thermal vibrational correction   ...      0.00567745 Eh       3.56 kcal/mol
Thermal rotational correction    ...      0.00141627 Eh       0.89 kcal/mol
Thermal translational correction ...      0.00141627 Eh       0.89 kcal/mol
-----------------------------------------------------------------------
Total thermal energy                   -731.61661401 Eh

Summary of corrections to the electronic energy:
(perhaps to be used in another calculation)
Total thermal correction                  0.00851000 Eh       5.34 kcal/mol
Non-thermal (ZPE) correction              0.06708354 Eh      42.10 kcal/mol
-----------------------------------------------------------------------
Total correction                          0.07559354 Eh      47.44 kcal/mol

--------
ENTHALPY
--------

The enthalpy is H = U + kB*T
                kB is Boltzmann's constant
Total thermal energy              ...   -731.61661401 Eh
Thermal Enthalpy correction       ...      0.00094421 Eh       0.59 kcal/mol
-----------------------------------------------------------------------
Total Enthalpy                    ...   -731.61566980 Eh

Note: Only C1 symmetry has been detected, increase convergence thresholds
      if your molecule has a higher symmetry. Symmetry factor of 1.0 is
      used for the rotational entropy correction.

Note: Rotational entropy computed according to Herzberg
Infrared and Raman Spectra, Chapter V,1, Van Nostrand Reinhold, 1945
Point Group:  C1, Symmetry Number:   1
Rotational constants in cm-1:     0.106740     0.100887     0.055757

Vibrational entropy computed according to the QRRHO of S. Grimme
Chem.Eur.J. 2012 18 9955 using a reference frequency of 100.0 cm-1

-------
ENTROPY
-------

The entropy contributions are T*S = T*(S(el)+S(vib)+S(rot)+S(trans))
     S(el)   - electronic entropy
     S(vib)  - vibrational entropy
     S(rot)  - rotational entropy
     S(trans)- translational entropy
The entropies will be listed as multiplied by the temperature to get
units of energy

Electronic entropy                ...      0.00000000 Eh      0.00 kcal/mol
Vibrational entropy               ...      0.00963719 Eh      6.05 kcal/mol
Rotational entropy                ...      0.01301271 Eh      8.17 kcal/mol
Translational entropy             ...      0.01872231 Eh     11.75 kcal/mol
-----------------------------------------------------------------------
Final entropy term                ...      0.04137221 Eh     25.96 kcal/mol

In case the symmetry of your molecule has not been determined correctly
or in case you have a reason to use a different symmetry number we print
out the resulting rotational entropy values for sn=1,12:

 non-linear molecules -----------------------------------
|  sn= 1 | S(rot)=       0.01301271 Eh      8.17 kcal/mol|
|  sn= 2 | S(rot)=       0.01235825 Eh      7.75 kcal/mol|
|  sn= 3 | S(rot)=       0.01197542 Eh      7.51 kcal/mol|
|  sn= 4 | S(rot)=       0.01170380 Eh      7.34 kcal/mol|
|  sn= 5 | S(rot)=       0.01149311 Eh      7.21 kcal/mol|
|  sn= 6 | S(rot)=       0.01132097 Eh      7.10 kcal/mol|
|  sn= 7 | S(rot)=       0.01117542 Eh      7.01 kcal/mol|
|  sn= 8 | S(rot)=       0.01104934 Eh      6.93 kcal/mol|
|  sn= 9 | S(rot)=       0.01093813 Eh      6.86 kcal/mol|
|  sn=10 | S(rot)=       0.01083865 Eh      6.80 kcal/mol|
|  sn=11 | S(rot)=       0.01074866 Eh      6.74 kcal/mol|
|  sn=12 | S(rot)=       0.01066651 Eh      6.69 kcal/mol|
 linear molecules ---------------------------------------
|  Dinfh | S(rot)=       0.00805142 Eh      5.05 kcal/mol|
|  Cinfv | S(rot)=       0.00870587 Eh      5.46 kcal/mol|
 --------------------------------------------------------

-------------------
GIBBS FREE ENERGY
-------------------

The Gibbs free energy is G = H - T*S

Total enthalpy                    ...   -731.61566980 Eh
Total entropy correction          ...     -0.04137221 Eh    -25.96 kcal/mol
-----------------------------------------------------------------------
Final Gibbs free energy         ...   -731.65704201 Eh

For completeness - the Gibbs free energy minus the electronic energy

                             ****ORCA TERMINATED NORMALLY****
TOTAL RUN TIME: 0 days 0 hours 21 minutes 56 seconds 58 msec
