                         Program Version 6.1.0  -  RELEASE   -
|  1> # Geometry optimization for (AlH3)n cluster
|  2>
|  3> %pal nprocs 24  end
|  4>
|  5> %geom MaxIter 500 end
|  6>
|  7>
|  8> ! PBE def2-SV(P)
|  9> ! RKS	# closed shell for AlH3
| 10> ! D3    #  dispersion correction
| 11> ! gCP(DFT/SV(P))
| 12> ! Freq 	# Frequency analysis to check the stabiltity of the structures
| 13>
| 14> ! NoPop # population analysis not necessary
| 15>
| 16> ! RI
| 17> ! DEFGRID2
| 18> ! NormalSCF
| 19> ! SloppyOpt
| 20>
| 21> ! SmallPrint
| 22>
| 23>
| 24> * xyzFile 0 1 start.xyz # only maingroup elements H and Al so there should be no net spin
| 25>
| 26>                          ****END OF INPUT****
 Total Charge           Charge          ....    0
 Multiplicity           Mult            ....    1
 Number of Electrons    NEL             ....  128
Dispersion correction           -0.045149816
FINAL SINGLE POINT ENERGY     -1950.353307645830
Dispersion correction             ... done (  0.1 sec)
Dispersion correction           -0.046526239
FINAL SINGLE POINT ENERGY     -1950.415127092249
Dispersion correction             ... done (  0.1 sec)
Dispersion correction           -0.046194914
FINAL SINGLE POINT ENERGY     -1950.464063607508
Dispersion correction             ... done (  0.1 sec)
FINAL SINGLE POINT ENERGY     -1950.520339708503
FINAL SINGLE POINT ENERGY     -1950.578393034058
FINAL SINGLE POINT ENERGY     -1950.669234466620
FINAL SINGLE POINT ENERGY     -1950.810886282047
FINAL SINGLE POINT ENERGY     -1950.927787406540
FINAL SINGLE POINT ENERGY     -1951.042482788049
FINAL SINGLE POINT ENERGY     -1951.150721417243
FINAL SINGLE POINT ENERGY     -1951.894160568737
FINAL SINGLE POINT ENERGY     -1951.895412234214
FINAL SINGLE POINT ENERGY     -1951.895349431177
FINAL SINGLE POINT ENERGY     -1951.896575346629
FINAL SINGLE POINT ENERGY     -1951.897167696520
FINAL SINGLE POINT ENERGY     -1951.898054730324
FINAL SINGLE POINT ENERGY     -1951.898434920517
Dispersion correction             ... done (  0.1 sec)
Dispersion correction           -0.040160405
FINAL SINGLE POINT ENERGY     -1951.898646198271
Dispersion correction             ... done (  0.1 sec)
Dispersion correction           -0.040160550
FINAL SINGLE POINT ENERGY     -1951.899011383450
Dispersion correction             ... done (  0.1 sec)
                    ***********************HURRAY********************

CARTESIAN COORDINATES (ANGSTROEM)
---------------------------------
  Al    -0.346856    2.478057    0.523969
  Al    -3.068340    1.007111    1.262496
  Al    -0.129289   -0.233322    0.819367
  Al     2.651730    1.385306    0.735190
  Al     0.184401   -0.672037    4.181551
  Al    -2.177779    1.736730    4.486398
  Al     2.329526    1.934870    4.119087
  Al     0.312323    1.300957    6.689872
  H      0.399957    1.315273    8.297827
  H      0.302307   -0.243740    5.998149
  H      1.587633    2.001565    5.875532
  H     -1.070395    1.953899    6.024322
  H     -1.611312    3.060033    3.760028
  H     -3.448684    1.353033    5.401529
  H     -3.149882    1.139272    2.913644
  H     -4.447881    0.734124    0.480574
  H     -1.242372    0.277749    4.107975
  H     -1.953236   -0.226337    0.987315
  H      0.068098   -0.866767    2.415818
  H     -0.142517   -1.502404   -0.180394
  H      1.670146    0.013911    0.636505
  H      2.994028    1.518036    2.356625
  H      3.924783    1.316428   -0.250512
  H      3.809505    1.754602    4.731653
  H      0.256409   -2.237741    4.544472
  H      1.548157    0.346711    3.926006
  H     -0.453321    4.059363    0.285952
  H     -2.208580    2.354414    0.736517
  H      1.533436    2.587313    0.396049
  H     -0.343486    1.136328   -0.527987
  H      1.412814    3.153928    3.597462
  H     -0.153059    1.419209    1.840125

 Multiplicity           Mult            ....    1
 Number of Electrons    NEL             ....  128
 Basis Dimension        Dim             ....  192

ORBITAL ENERGIES
----------------

  NO   OCC          E(Eh)            E(eV)
   0   2.0000     -55.432708     -1508.4007
   1   2.0000     -55.425013     -1508.1913
   2   2.0000     -55.416154     -1507.9502
   3   2.0000     -55.402916     -1507.5900
   4   2.0000     -55.402133     -1507.5687
   5   2.0000     -55.401487     -1507.5511
   6   2.0000     -55.401062     -1507.5395
   7   2.0000     -55.398178     -1507.4611
   8   2.0000      -3.980470      -108.3141
   9   2.0000      -3.971673      -108.0747
  10   2.0000      -3.967900      -107.9720
  11   2.0000      -3.955772      -107.6420
  12   2.0000      -3.955526      -107.6353
  13   2.0000      -3.954675      -107.6122
  14   2.0000      -3.953878      -107.5905
  15   2.0000      -3.953108      -107.5695
  16   2.0000      -2.588147       -70.4271
  17   2.0000      -2.586986       -70.3955
  18   2.0000      -2.583172       -70.2917
  19   2.0000      -2.579034       -70.1791
  20   2.0000      -2.578383       -70.1614
  21   2.0000      -2.575693       -70.0882
  22   2.0000      -2.575475       -70.0822
  23   2.0000      -2.574392       -70.0528
  24   2.0000      -2.569165       -69.9105
  25   2.0000      -2.563190       -69.7480
  26   2.0000      -2.563163       -69.7472
  27   2.0000      -2.562879       -69.7395
  28   2.0000      -2.562385       -69.7260
  29   2.0000      -2.562342       -69.7249
  30   2.0000      -2.561975       -69.7149
  31   2.0000      -2.561732       -69.7083
  32   2.0000      -2.561613       -69.7050
  33   2.0000      -2.560374       -69.6713
  34   2.0000      -2.559395       -69.6447
  35   2.0000      -2.558598       -69.6230
  36   2.0000      -2.558361       -69.6165
  37   2.0000      -2.555928       -69.5503
  38   2.0000      -2.555019       -69.5256
  39   2.0000      -2.554231       -69.5042
  40   2.0000      -0.515321       -14.0226
  41   2.0000      -0.484916       -13.1952
  42   2.0000      -0.453091       -12.3292
  43   2.0000      -0.423451       -11.5227
  44   2.0000      -0.417240       -11.3537
  45   2.0000      -0.409321       -11.1382
  46   2.0000      -0.390509       -10.6263
  47   2.0000      -0.373247       -10.1566
  48   2.0000      -0.342851        -9.3295
  49   2.0000      -0.340697        -9.2708
  50   2.0000      -0.339599        -9.2410
  51   2.0000      -0.327735        -8.9181
  52   2.0000      -0.326272        -8.8783
  53   2.0000      -0.313941        -8.5428
  54   2.0000      -0.301371        -8.2007
  55   2.0000      -0.300992        -8.1904
  56   2.0000      -0.299738        -8.1563
  57   2.0000      -0.282782        -7.6949
  58   2.0000      -0.274380        -7.4662
  59   2.0000      -0.273477        -7.4417
  60   2.0000      -0.271653        -7.3921
  61   2.0000      -0.269662        -7.3379
  62   2.0000      -0.266323        -7.2470
  63   2.0000      -0.253805        -6.9064
  64   0.0000      -0.094264        -2.5650
  65   0.0000      -0.086150        -2.3443
  66   0.0000      -0.075280        -2.0485
  67   0.0000      -0.050008        -1.3608
  68   0.0000      -0.048827        -1.3287

-------
TIMINGS
-------

Dispersion correction           -0.040186628
FINAL SINGLE POINT ENERGY     -1951.899104625390

DIPOLE MOMENT
-------------

Method             : SCF
Type of density    : Electron Density
Multiplicity       :   1
Irrep              :   0
Energy             : -1951.9728770515212091 Eh
Basis              : AO
                                X                 Y                 Z
Electronic contribution:     -0.021110721       0.490240894       0.069231945
Nuclear contribution   :      0.013457960      -0.345065836      -0.086181422
                        -----------------------------------------
Total Dipole Moment    :     -0.007652761       0.145175058      -0.016949477
                        -----------------------------------------
Magnitude (a.u.)       :      0.146361357
Magnitude (Debye)      :      0.372021006

VIBRATIONAL FREQUENCIES
-----------------------

Scaling factor for frequencies =  1.000000000  (already applied!)

     0:       0.00 cm**-1
     1:       0.00 cm**-1
     2:       0.00 cm**-1
     3:       0.00 cm**-1
     4:       0.00 cm**-1
     5:       0.00 cm**-1
     6:     -37.38 cm**-1  ***imaginary mode***
     7:      52.67 cm**-1
     8:      77.92 cm**-1
     9:     107.42 cm**-1
    10:     111.78 cm**-1
    11:     126.67 cm**-1
    12:     130.90 cm**-1
    13:     164.39 cm**-1
    14:     165.65 cm**-1
    15:     172.29 cm**-1
    16:     193.32 cm**-1
    17:     203.14 cm**-1
    18:     205.15 cm**-1
    19:     221.30 cm**-1
    20:     228.41 cm**-1
    21:     245.72 cm**-1
    22:     249.36 cm**-1
    23:     265.56 cm**-1
    24:     267.04 cm**-1
    25:     277.92 cm**-1
    26:     293.19 cm**-1
    27:     313.19 cm**-1
    28:     333.79 cm**-1
    29:     344.49 cm**-1
    30:     346.52 cm**-1
    31:     366.99 cm**-1
    32:     399.61 cm**-1
    33:     404.28 cm**-1
    34:     434.29 cm**-1
    35:     452.50 cm**-1
    36:     457.40 cm**-1
    37:     469.94 cm**-1
    38:     513.47 cm**-1
    39:     534.12 cm**-1
    40:     537.04 cm**-1
    41:     543.81 cm**-1
    42:     572.56 cm**-1
    43:     589.63 cm**-1
    44:     597.59 cm**-1
    45:     605.54 cm**-1
    46:     610.59 cm**-1
    47:     620.68 cm**-1
    48:     637.33 cm**-1
    49:     669.88 cm**-1
    50:     688.51 cm**-1
    51:     709.18 cm**-1
    52:     717.57 cm**-1
    53:     735.95 cm**-1
    54:     774.52 cm**-1
    55:     785.07 cm**-1
    56:     798.96 cm**-1
    57:     817.53 cm**-1
    58:     831.23 cm**-1
    59:     838.81 cm**-1
    60:     843.48 cm**-1
    61:     871.55 cm**-1
    62:     874.17 cm**-1
    63:     899.48 cm**-1
    64:     903.50 cm**-1
    65:     930.43 cm**-1
    66:     944.40 cm**-1
    67:     966.38 cm**-1
    68:    1012.36 cm**-1
    69:    1014.45 cm**-1
    70:    1022.88 cm**-1
    71:    1118.07 cm**-1
    72:    1549.57 cm**-1
    73:    1611.76 cm**-1
    74:    1638.35 cm**-1
    75:    1673.70 cm**-1
    76:    1688.39 cm**-1
    77:    1706.74 cm**-1
    78:    1725.94 cm**-1
    79:    1749.69 cm**-1
    80:    1793.15 cm**-1
    81:    1798.83 cm**-1
    82:    1808.13 cm**-1
    83:    1812.16 cm**-1
    84:    1819.87 cm**-1
    85:    1860.15 cm**-1
    86:    1878.31 cm**-1
    87:    1888.91 cm**-1
    88:    1890.12 cm**-1
    89:    1893.15 cm**-1
    90:    1893.77 cm**-1
    91:    1898.09 cm**-1
    92:    1898.27 cm**-1
    93:    1900.71 cm**-1
    94:    1918.00 cm**-1
    95:    1922.27 cm**-1

IR SPECTRUM
-----------

 Mode   freq       eps      Int      T**2         TX        TY        TZ
       cm**-1   L/(mol*cm) km/mol    a.u.
----------------------------------------------------------------------------
  7:     52.67   0.000019    0.10  0.000115  (-0.004956 -0.003937 -0.008659)
  8:     77.92   0.000148    0.75  0.000592  (-0.024160 -0.002555  0.001376)
  9:    107.42   0.000052    0.26  0.000151  ( 0.010571  0.006190 -0.000905)
 10:    111.78   0.000121    0.61  0.000337  (-0.005707  0.017425 -0.000653)
 11:    126.67   0.000093    0.47  0.000229  ( 0.013788 -0.005638 -0.002723)
 12:    130.90   0.000081    0.41  0.000194  (-0.009433 -0.009266 -0.004397)
 13:    164.39   0.000002    0.01  0.000003  (-0.000166 -0.000462 -0.001665)
 14:    165.65   0.000262    1.33  0.000494  (-0.000889  0.000680 -0.022206)
 15:    172.29   0.000350    1.77  0.000634  ( 0.004483 -0.014749  0.019902)
 16:    193.32   0.000489    2.47  0.000789  ( 0.008080 -0.026461  0.004821)
 17:    203.14   0.000398    2.01  0.000611  ( 0.014730 -0.011594  0.016121)
 18:    205.15   0.000257    1.30  0.000390  ( 0.016854  0.008254  0.006184)
 19:    221.30   0.002430   12.28  0.003427  ( 0.050987  0.007586  0.027736)
 20:    228.41   0.002472   12.49  0.003377  (-0.039802 -0.001646  0.042313)
 21:    245.72   0.000692    3.50  0.000879  ( 0.017386 -0.021369 -0.010978)
 22:    249.36   0.000772    3.90  0.000967  (-0.013517 -0.027947 -0.001690)
 23:    265.56   0.000870    4.40  0.001023  ( 0.024629 -0.015233 -0.013571)
 24:    267.04   0.000785    3.97  0.000917  (-0.016792 -0.011928 -0.022196)
 25:    277.92   0.001544    7.80  0.001734  (-0.039919 -0.000631  0.011838)
 26:    293.19   0.001750    8.84  0.001862  ( 0.020593  0.000693  0.037918)
 27:    313.19   0.001441    7.28  0.001436  ( 0.003147  0.018546  0.032900)
 28:    333.79   0.003029   15.31  0.002832  ( 0.000702 -0.026553  0.046108)
 29:    344.49   0.001740    8.79  0.001576  ( 0.011867 -0.019871  0.032252)
 30:    346.52   0.000956    4.83  0.000861  (-0.009148 -0.009630  0.026158)
 31:    366.99   0.022058  111.47  0.018756  ( 0.007597  0.005581  0.136628)
 32:    399.61   0.009924   50.15  0.007750  ( 0.087699  0.006532 -0.003987)
 33:    404.28   0.000712    3.60  0.000550  ( 0.000379 -0.022270  0.007338)
 34:    434.29   0.001312    6.63  0.000943  ( 0.028961  0.004828 -0.008973)
 35:    452.50   0.005610   28.35  0.003869  ( 0.013423 -0.053475  0.028796)
 36:    457.40   0.000352    1.78  0.000240  (-0.008072 -0.009600  0.009107)
 37:    469.94   0.004430   22.39  0.002942  ( 0.005614 -0.045541 -0.028915)
 38:    513.47   0.000514    2.60  0.000313  (-0.016908 -0.005161  0.000414)
 39:    534.12   0.002453   12.40  0.001433  ( 0.007701 -0.034742  0.012912)
 40:    537.04   0.009040   45.68  0.005253  (-0.008199  0.020110 -0.069148)
 41:    543.81   0.002907   14.69  0.001668  (-0.028023 -0.012215  0.027083)
 42:    572.56   0.001263    6.39  0.000689  (-0.025994  0.000014  0.003598)
 43:    589.63   0.023316  117.83  0.012340  ( 0.108760  0.021709  0.006347)
 44:    597.59   0.021290  107.59  0.011118  ( 0.015129 -0.095403  0.042276)
 45:    605.54   0.005834   29.48  0.003006  (-0.010897 -0.007607 -0.053195)
 46:    610.59   0.029324  148.19  0.014987  ( 0.044766 -0.054763 -0.099921)
 47:    620.68   0.019951  100.83  0.010031  ( 0.090826  0.018870  0.037759)
 48:    637.33   0.001395    7.05  0.000683  ( 0.016611  0.018799  0.007323)
 49:    669.88   0.077806  393.20  0.036246  ( 0.013732  0.029941  0.187513)
 50:    688.51   0.029353  148.34  0.013304  ( 0.066524 -0.008463 -0.093845)
 51:    709.18   0.038068  192.38  0.016751  ( 0.104647  0.015869  0.074487)
 52:    717.57   0.131213  663.10  0.057063  ( 0.020115 -0.059037  0.230593)
 53:    735.95   0.157504  795.96  0.066786  ( 0.018580  0.012787  0.257444)
 54:    774.52   0.020551  103.85  0.008280  (-0.055605 -0.069076  0.020416)
 55:    785.07   0.244795  1237.09  0.097305  (-0.309758 -0.021679  0.029749)
 56:    798.96   0.118523  598.97  0.046293  ( 0.212194 -0.019448 -0.029819)
 57:    817.53   0.043924  221.97  0.016766  ( 0.085687  0.046015  0.085480)
 58:    831.23   0.097237  491.40  0.036505  (-0.001166 -0.149887 -0.118481)
 59:    838.81   0.007088   35.82  0.002637  ( 0.020479  0.044602  0.015113)
 60:    843.48   0.024581  124.22  0.009094  ( 0.067712 -0.016580 -0.065072)
 61:    871.55   0.025904  130.91  0.009275  (-0.009795  0.083985 -0.046106)
 62:    874.17   0.000235    1.19  0.000084  ( 0.001183 -0.009039 -0.000969)
 63:    899.48   0.040575  205.05  0.014077  (-0.013008 -0.084937 -0.081815)
 64:    903.50   0.026169  132.25  0.009038  ( 0.005131 -0.019952  0.092812)
 65:    930.43   0.001274    6.44  0.000427  (-0.020150  0.000507 -0.004600)
 66:    944.40   0.080893  408.80  0.026730  (-0.016640  0.155316 -0.048271)
 67:    966.38   0.002770   14.00  0.000895  ( 0.027609  0.010470 -0.004767)
 68:   1012.36   0.006045   30.55  0.001863  (-0.043142 -0.000596 -0.001292)
 69:   1014.45   0.027537  139.16  0.008471  (-0.012725 -0.019824  0.088971)
 70:   1022.88   0.062481  315.75  0.019062  ( 0.138063 -0.000423 -0.000503)
 71:   1118.07   0.016256   82.15  0.004537  ( 0.005393 -0.058621  0.032734)
 72:   1549.57   0.036834  186.15  0.007418  ( 0.007011  0.015768  0.084381)
 73:   1611.76   0.006956   35.15  0.001347  (-0.011547  0.019985 -0.028533)
 74:   1638.35   0.007158   36.17  0.001363  (-0.001611  0.031710  0.018847)
 75:   1673.70   0.017677   89.33  0.003296  ( 0.001697  0.013763  0.055710)
 76:   1688.39   0.010062   50.85  0.001860  (-0.041201 -0.008144  0.009792)
 77:   1706.74   0.001291    6.53  0.000236  ( 0.010161 -0.009126  0.007040)
 78:   1725.94   0.003534   17.86  0.000639  ( 0.021137 -0.013828  0.000988)
 79:   1749.69   0.148339  749.64  0.026457  ( 0.002852  0.115822 -0.114166)
 80:   1793.15   0.325673  1645.82  0.056677  (-0.165081 -0.111434 -0.130414)
 81:   1798.83   0.420644  2125.76  0.072974  (-0.243144  0.042742  0.109672)
 82:   1808.13   0.039601  200.13  0.006835  ( 0.024298 -0.020421  0.076337)
 83:   1812.16   0.307452  1553.73  0.052945  ( 0.021867  0.005728  0.228984)
 84:   1819.87   0.016534   83.56  0.002835  ( 0.038413 -0.004897 -0.036548)
 85:   1860.15   0.087035  439.84  0.014601  ( 0.022327 -0.111107  0.041929)
 86:   1878.31   0.006504   32.87  0.001080  (-0.000110  0.031626 -0.008959)
 87:   1888.91   0.017788   89.89  0.002939  (-0.036178  0.002728  0.040280)
 88:   1890.12   0.055281  279.37  0.009127  (-0.093847 -0.012663  0.012625)
 89:   1893.15   0.011943   60.35  0.001969  (-0.004422  0.012061  0.042469)
 90:   1893.77   0.024153  122.06  0.003980  ( 0.027574 -0.005573  0.056467)
 91:   1898.09   0.017557   88.72  0.002886  ( 0.052804 -0.006357  0.007602)
 92:   1898.27   0.006459   32.64  0.001062  ( 0.015721 -0.012166  0.025819)
 93:   1900.71   0.025797  130.37  0.004235  (-0.001679  0.064619 -0.007550)
 94:   1918.00   0.049683  251.08  0.008084  ( 0.022105 -0.083921  0.023501)
 95:   1922.27   0.002519   12.73  0.000409  (-0.012342  0.010905 -0.011734)

--------------------------
THERMOCHEMISTRY AT 298.15K
--------------------------

Temperature         ...   298.15 K
Pressure            ...     1.00 atm
Total Mass          ...   240.05 AMU
Quasi RRHO          ...     True
Cut-Off Frequency   ...     1.00 cm^-1

Throughout the following assumptions are being made:
  (1) The electronic state is orbitally nondegenerate
  (2) There are no thermally accessible electronically excited states
  (3) Hindered rotations indicated by low frequency modes are not
      treated as such but are treated as vibrations and this may
      cause some error
  (4) All equations used are the standard statistical mechanics
      equations for an ideal gas
  (5) All vibrations are strictly harmonic

freq.      52.67  E(vib)   ...       0.52
freq.      77.92  E(vib)   ...       0.49
freq.     107.42  E(vib)   ...       0.45
freq.     111.78  E(vib)   ...       0.45
freq.     126.67  E(vib)   ...       0.43
freq.     130.90  E(vib)   ...       0.42
freq.     164.39  E(vib)   ...       0.39
freq.     165.65  E(vib)   ...       0.39
freq.     172.29  E(vib)   ...       0.38
freq.     193.32  E(vib)   ...       0.36
freq.     203.14  E(vib)   ...       0.35
freq.     205.15  E(vib)   ...       0.35
freq.     221.30  E(vib)   ...       0.33
freq.     228.41  E(vib)   ...       0.32
freq.     245.72  E(vib)   ...       0.31
freq.     249.36  E(vib)   ...       0.31
freq.     265.56  E(vib)   ...       0.29
freq.     267.04  E(vib)   ...       0.29
freq.     277.92  E(vib)   ...       0.28
freq.     293.19  E(vib)   ...       0.27
freq.     313.19  E(vib)   ...       0.25
freq.     333.79  E(vib)   ...       0.24
freq.     344.49  E(vib)   ...       0.23
freq.     346.52  E(vib)   ...       0.23
freq.     366.99  E(vib)   ...       0.22
freq.     399.61  E(vib)   ...       0.19
freq.     404.28  E(vib)   ...       0.19
freq.     434.29  E(vib)   ...       0.17
freq.     452.50  E(vib)   ...       0.16
freq.     457.40  E(vib)   ...       0.16
freq.     469.94  E(vib)   ...       0.16
freq.     513.47  E(vib)   ...       0.13
freq.     534.12  E(vib)   ...       0.13
freq.     537.04  E(vib)   ...       0.12
freq.     543.81  E(vib)   ...       0.12
freq.     572.56  E(vib)   ...       0.11
freq.     589.63  E(vib)   ...       0.10
freq.     597.59  E(vib)   ...       0.10
freq.     605.54  E(vib)   ...       0.10
freq.     610.59  E(vib)   ...       0.10
freq.     620.68  E(vib)   ...       0.09
freq.     637.33  E(vib)   ...       0.09
freq.     669.88  E(vib)   ...       0.08
freq.     688.51  E(vib)   ...       0.07
freq.     709.18  E(vib)   ...       0.07
freq.     717.57  E(vib)   ...       0.07
freq.     735.95  E(vib)   ...       0.06
freq.     774.52  E(vib)   ...       0.05
freq.     785.07  E(vib)   ...       0.05
freq.     798.96  E(vib)   ...       0.05
freq.     817.53  E(vib)   ...       0.05
freq.     831.23  E(vib)   ...       0.04
freq.     838.81  E(vib)   ...       0.04
freq.     843.48  E(vib)   ...       0.04
freq.     871.55  E(vib)   ...       0.04
freq.     874.17  E(vib)   ...       0.04
freq.     899.48  E(vib)   ...       0.03
freq.     903.50  E(vib)   ...       0.03
freq.     930.43  E(vib)   ...       0.03
freq.     944.40  E(vib)   ...       0.03
freq.     966.38  E(vib)   ...       0.03
freq.    1012.36  E(vib)   ...       0.02
freq.    1014.45  E(vib)   ...       0.02
freq.    1022.88  E(vib)   ...       0.02
freq.    1118.07  E(vib)   ...       0.01
freq.    1549.57  E(vib)   ...       0.00
freq.    1611.76  E(vib)   ...       0.00
freq.    1638.35  E(vib)   ...       0.00
freq.    1673.70  E(vib)   ...       0.00
freq.    1688.39  E(vib)   ...       0.00
freq.    1706.74  E(vib)   ...       0.00
freq.    1725.94  E(vib)   ...       0.00
freq.    1749.69  E(vib)   ...       0.00
freq.    1793.15  E(vib)   ...       0.00
freq.    1798.83  E(vib)   ...       0.00
freq.    1808.13  E(vib)   ...       0.00
freq.    1812.16  E(vib)   ...       0.00
freq.    1819.87  E(vib)   ...       0.00
freq.    1860.15  E(vib)   ...       0.00
freq.    1878.31  E(vib)   ...       0.00
freq.    1888.91  E(vib)   ...       0.00
freq.    1890.12  E(vib)   ...       0.00
freq.    1893.15  E(vib)   ...       0.00
freq.    1893.77  E(vib)   ...       0.00
freq.    1898.09  E(vib)   ...       0.00
freq.    1898.27  E(vib)   ...       0.00
freq.    1900.71  E(vib)   ...       0.00
freq.    1918.00  E(vib)   ...       0.00
freq.    1922.27  E(vib)   ...       0.00

------------
INNER ENERGY
------------

The inner energy is: U= E(el) + E(ZPE) + E(vib) + E(rot) + E(trans)
    E(el)   - is the total energy from the electronic structure calculation
              = E(kin-el) + E(nuc-el) + E(el-el) + E(nuc-nuc)
    E(ZPE)  - the the zero temperature vibrational energy from the frequency calculation
    E(vib)  - the the finite temperature correction to E(ZPE) due to population
              of excited vibrational states
    E(rot)  - is the rotational thermal energy
    E(trans)- is the translational thermal energy

Summary of contributions to the inner energy U:
Electronic energy                ...  -1951.89910463 Eh
Zero point energy                ...      0.17640201 Eh     110.69 kcal/mol
Thermal vibrational correction   ...      0.01879038 Eh      11.79 kcal/mol
Thermal rotational correction    ...      0.00141627 Eh       0.89 kcal/mol
Thermal translational correction ...      0.00141627 Eh       0.89 kcal/mol
-----------------------------------------------------------------------
Total thermal energy                  -1951.70107970 Eh

Summary of corrections to the electronic energy:
(perhaps to be used in another calculation)
Total thermal correction                  0.02162292 Eh      13.57 kcal/mol
Non-thermal (ZPE) correction              0.17640201 Eh     110.69 kcal/mol
-----------------------------------------------------------------------
Total correction                          0.19802493 Eh     124.26 kcal/mol

--------
ENTHALPY
--------

The enthalpy is H = U + kB*T
                kB is Boltzmann's constant
Total thermal energy              ...  -1951.70107970 Eh
Thermal Enthalpy correction       ...      0.00094421 Eh       0.59 kcal/mol
-----------------------------------------------------------------------
Total Enthalpy                    ...  -1951.70013549 Eh

Note: Only C1 symmetry has been detected, increase convergence thresholds
      if your molecule has a higher symmetry. Symmetry factor of 1.0 is
      used for the rotational entropy correction.

Note: Rotational entropy computed according to Herzberg
Infrared and Raman Spectra, Chapter V,1, Van Nostrand Reinhold, 1945
Point Group:  C1, Symmetry Number:   1
Rotational constants in cm-1:     0.015357     0.011893     0.008505

                             ****ORCA TERMINATED NORMALLY****
TOTAL RUN TIME: 0 days 0 hours 14 minutes 36 seconds 631 msec
