                         Program Version 6.1.0  -  RELEASE   -
|  1> # Geometry optimization for (AlH3)n cluster
|  2>
|  3> %pal nprocs 64 end
|  4>
|  5> ! PBE 	# functional used for the MOF calculations later (non-expensive)
|  6> ! RKS	# closed shell for AlH3
|  7> ! D3BJ  # better geometries at low cost
|  8> ! def-TZVP def-ECP def2/J
|  9> ! Freq 	# Frequency analysis to check the stabiltity of the structures
| 10>
| 11> ! NoPop # population analysis not necessary
| 12>
| 13> ! RI 		# speed up calculation
| 14> ! DEFGRID3 # dense integration grid in space
| 15> ! TightSCF #
| 16> ! TightOpt # thight convergence criteria for geometry optimizations
| 17>
| 18> ! SmallPrint
| 19>
| 20>
| 21> * xyzFile 0 1 start.xyz # pc-3 PBE geometry
| 22>
| 23>                          ****END OF INPUT****
 Total Charge           Charge          ....    0
 Multiplicity           Mult            ....    1
 Number of Electrons    NEL             ....   80
Dispersion correction           -0.020703783
FINAL SINGLE POINT ENERGY     -1220.415760254441
Dispersion correction             ... done (  0.0 sec)
Dispersion correction           -0.020660353
FINAL SINGLE POINT ENERGY     -1220.415907328827
Dispersion correction             ... done (  0.0 sec)
Dispersion correction           -0.020531824
FINAL SINGLE POINT ENERGY     -1220.416092397748
Dispersion correction             ... done (  0.0 sec)
FINAL SINGLE POINT ENERGY     -1220.416097939984
FINAL SINGLE POINT ENERGY     -1220.416107072581
FINAL SINGLE POINT ENERGY     -1220.416108261485
FINAL SINGLE POINT ENERGY     -1220.416110033922
FINAL SINGLE POINT ENERGY     -1220.416111278729
FINAL SINGLE POINT ENERGY     -1220.416112150265
FINAL SINGLE POINT ENERGY     -1220.416112616209
FINAL SINGLE POINT ENERGY     -1220.416113206883
FINAL SINGLE POINT ENERGY     -1220.416113973734
FINAL SINGLE POINT ENERGY     -1220.416114705384
Dispersion correction             ... done (  0.0 sec)
Dispersion correction           -0.020450217
FINAL SINGLE POINT ENERGY     -1220.416115129234
Dispersion correction             ... done (  0.0 sec)
Dispersion correction           -0.020448983
FINAL SINGLE POINT ENERGY     -1220.416115374587
Dispersion correction             ... done (  0.0 sec)
                    ***********************HURRAY********************

CARTESIAN COORDINATES (ANGSTROEM)
---------------------------------
  Al    -1.201984    1.396320    3.663542
  H     -2.394280    2.448246    3.697667
  H      1.660839   -2.161675   -0.368782
  H      0.361742   -0.425023    3.709604
  Al     1.163704    2.537820    3.929646
  H      2.441943    1.594935    4.027056
  H      1.076917    4.128352    3.939596
  H     -1.770996    0.135388    4.842416
  Al    -0.958721   -1.227581    1.865911
  H     -2.001514   -1.784037    0.801929
  H     -0.076404    1.924686    4.969672
  H      0.346659   -0.317055    1.075067
  Al    -0.736047   -1.184357    4.666123
  H     -1.575191   -1.946084    3.417429
  H     -0.393887   -2.035528    5.956239
  H      2.699659   -1.169422    2.126397
  Al     1.546319   -1.576676    1.108396
  H     -1.614930    0.291169    2.389940
  H      0.136048    1.970969    2.645106
  H      0.335302   -2.480419    1.952386

 Multiplicity           Mult            ....    1
 Number of Electrons    NEL             ....   80
 Basis Dimension        Dim             ....  200

ORBITAL ENERGIES
----------------

  NO   OCC          E(Eh)            E(eV)
   0   2.0000     -55.432568     -1508.3969
   1   2.0000     -55.432535     -1508.3960
   2   2.0000     -55.423186     -1508.1416
   3   2.0000     -55.396914     -1507.4267
   4   2.0000     -55.396881     -1507.4258
   5   2.0000      -3.965108      -107.8961
   6   2.0000      -3.965068      -107.8950
   7   2.0000      -3.960468      -107.7698
   8   2.0000      -3.933864      -107.0459
   9   2.0000      -3.933829      -107.0449
  10   2.0000      -2.568956       -69.9049
  11   2.0000      -2.568915       -69.9037
  12   2.0000      -2.568070       -69.8807
  13   2.0000      -2.568016       -69.8793
  14   2.0000      -2.565802       -69.8190
  15   2.0000      -2.565758       -69.8178
  16   2.0000      -2.564992       -69.7970
  17   2.0000      -2.564197       -69.7753
  18   2.0000      -2.559662       -69.6519
  19   2.0000      -2.539810       -69.1118
  20   2.0000      -2.539776       -69.1108
  21   2.0000      -2.536962       -69.0343
  22   2.0000      -2.536926       -69.0333
  23   2.0000      -2.532293       -68.9072
  24   2.0000      -2.532259       -68.9063
  25   2.0000      -0.518079       -14.0976
  26   2.0000      -0.463862       -12.6223
  27   2.0000      -0.436231       -11.8704
  28   2.0000      -0.384375       -10.4594
  29   2.0000      -0.373835       -10.1726
  30   2.0000      -0.338799        -9.2192
  31   2.0000      -0.318338        -8.6624
  32   2.0000      -0.318111        -8.6563
  33   2.0000      -0.313283        -8.5249
  34   2.0000      -0.295084        -8.0296
  35   2.0000      -0.288309        -7.8453
  36   2.0000      -0.282240        -7.6801
  37   2.0000      -0.271735        -7.3943
  38   2.0000      -0.267961        -7.2916
  39   2.0000      -0.262329        -7.1383
  40   0.0000      -0.074142        -2.0175
  41   0.0000      -0.072306        -1.9675
  42   0.0000      -0.049407        -1.3444
  43   0.0000      -0.047318        -1.2876
  44   0.0000      -0.040146        -1.0924

-------
TIMINGS
-------

Dispersion correction           -0.020448251
FINAL SINGLE POINT ENERGY     -1220.416115619528

DIPOLE MOMENT
-------------

Method             : SCF
Type of density    : Electron Density
Multiplicity       :   1
Irrep              :   0
Energy             : -1220.3956673681745997 Eh
Basis              : AO
                                X                 Y                 Z
Electronic contribution:      0.014981703      -0.683953298       0.995077222
Nuclear contribution   :     -0.181712818       0.295349154      -0.453727368
                        -----------------------------------------
Total Dipole Moment    :     -0.166731115      -0.388604144       0.541349855
                        -----------------------------------------
Magnitude (a.u.)       :      0.686929480
Magnitude (Debye)      :      1.746035979

VIBRATIONAL FREQUENCIES
-----------------------

Scaling factor for frequencies =  1.000000000  (already applied!)

     0:       0.00 cm**-1
     1:       0.00 cm**-1
     2:       0.00 cm**-1
     3:       0.00 cm**-1
     4:       0.00 cm**-1
     5:       0.00 cm**-1
     6:      48.73 cm**-1
     7:      51.40 cm**-1
     8:      83.55 cm**-1
     9:      94.97 cm**-1
    10:     157.73 cm**-1
    11:     162.09 cm**-1
    12:     213.22 cm**-1
    13:     217.41 cm**-1
    14:     270.38 cm**-1
    15:     300.57 cm**-1
    16:     310.18 cm**-1
    17:     364.60 cm**-1
    18:     370.22 cm**-1
    19:     392.20 cm**-1
    20:     423.05 cm**-1
    21:     442.81 cm**-1
    22:     452.96 cm**-1
    23:     501.86 cm**-1
    24:     512.18 cm**-1
    25:     522.53 cm**-1
    26:     528.56 cm**-1
    27:     537.10 cm**-1
    28:     627.38 cm**-1
    29:     667.06 cm**-1
    30:     689.81 cm**-1
    31:     711.68 cm**-1
    32:     714.92 cm**-1
    33:     741.32 cm**-1
    34:     749.92 cm**-1
    35:     795.86 cm**-1
    36:     817.69 cm**-1
    37:     825.22 cm**-1
    38:    1027.28 cm**-1
    39:    1124.52 cm**-1
    40:    1171.21 cm**-1
    41:    1179.81 cm**-1
    42:    1216.73 cm**-1
    43:    1347.84 cm**-1
    44:    1382.18 cm**-1
    45:    1403.02 cm**-1
    46:    1429.95 cm**-1
    47:    1525.75 cm**-1
    48:    1536.25 cm**-1
    49:    1593.72 cm**-1
    50:    1627.15 cm**-1
    51:    1739.35 cm**-1
    52:    1745.38 cm**-1
    53:    1886.95 cm**-1
    54:    1888.07 cm**-1
    55:    1902.33 cm**-1
    56:    1903.09 cm**-1
    57:    1908.37 cm**-1
    58:    1913.25 cm**-1
    59:    1931.15 cm**-1

IR SPECTRUM
-----------

 Mode   freq       eps      Int      T**2         TX        TY        TZ
       cm**-1   L/(mol*cm) km/mol    a.u.
----------------------------------------------------------------------------
  6:     48.73   0.000109    0.55  0.000698  ( 0.010471  0.014820 -0.019203)
  7:     51.40   0.000503    2.54  0.003056  (-0.004429  0.045360  0.031294)
  8:     83.55   0.001281    6.47  0.004783  (-0.005492  0.056977  0.038817)
  9:     94.97   0.000067    0.34  0.000220  ( 0.011683 -0.003518  0.008408)
 10:    157.73   0.001877    9.49  0.003714  ( 0.007272 -0.036295  0.048412)
 11:    162.09   0.003013   15.23  0.005800  (-0.005519  0.061200  0.044995)
 12:    213.22   0.001288    6.51  0.001886  (-0.000966 -0.026422  0.034446)
 13:    217.41   0.000531    2.68  0.000762  ( 0.002057 -0.020918 -0.017889)
 14:    270.38   0.000108    0.54  0.000124  (-0.009596 -0.003555  0.004403)
 15:    300.57   0.000564    2.85  0.000586  (-0.001856  0.019970  0.013548)
 16:    310.18   0.000060    0.30  0.000060  (-0.007725 -0.000841  0.000123)
 17:    364.60   0.002080   10.51  0.001780  ( 0.032039  0.017367 -0.021256)
 18:    370.22   0.001201    6.07  0.001013  ( 0.002365 -0.026254 -0.017827)
 19:    392.20   0.000229    1.16  0.000182  (-0.012610  0.001887 -0.004416)
 20:    423.05   0.000149    0.75  0.000110  ( 0.000832 -0.008545 -0.006003)
 21:    442.81   0.000018    0.09  0.000013  ( 0.000325 -0.003098 -0.001727)
 22:    452.96   0.001090    5.51  0.000751  (-0.009899  0.013744 -0.021548)
 23:    501.86   0.001802    9.11  0.001121  ( 0.001986 -0.028003 -0.018238)
 24:    512.18   0.014515   73.35  0.008844  ( 0.062982  0.042068 -0.055741)
 25:    522.53   0.010885   55.01  0.006501  (-0.006129  0.067228  0.044086)
 26:    528.56   0.003021   15.27  0.001784  (-0.026080  0.014901 -0.029690)
 27:    537.10   0.016317   82.46  0.009480  (-0.007448  0.080269  0.054606)
 28:    627.38   0.042543  215.00  0.021161  (-0.052272 -0.079811  0.109814)
 29:    667.06   0.104625  528.73  0.048946  (-0.017096  0.181957  0.124680)
 30:    689.81   0.088510  447.29  0.040041  (-0.190137 -0.046605  0.041438)
 31:    711.68   0.004047   20.45  0.001775  (-0.027783  0.018391 -0.025781)
 32:    714.92   0.011938   60.33  0.005211  ( 0.004074 -0.058376 -0.042270)
 33:    741.32   0.087014  439.73  0.036629  ( 0.015325 -0.157745 -0.107287)
 34:    749.92   0.045862  231.77  0.019085  (-0.083638  0.056059 -0.094587)
 35:    795.86   0.020387  103.03  0.007994  (-0.008973 -0.050759  0.073055)
 36:    817.69   0.000512    2.59  0.000195  ( 0.001721 -0.011766 -0.007354)
 37:    825.22   0.037347  188.73  0.014123  (-0.118364 -0.010570 -0.001048)
 38:   1027.28   0.016454   83.15  0.004998  (-0.037474  0.031169 -0.051212)
 39:   1124.52   0.007515   37.98  0.002085  ( 0.003932 -0.037408 -0.025895)
 40:   1171.21   0.022170  112.04  0.005907  (-0.074939  0.003506 -0.016702)
 41:   1179.81   0.020846  105.35  0.005514  (-0.005530  0.061484  0.041268)
 42:   1216.73   0.120826  610.61  0.030989  (-0.057358 -0.097532  0.134858)
 43:   1347.84   0.102153  516.24  0.023651  ( 0.012064 -0.126412 -0.086752)
 44:   1382.18   0.144222  728.84  0.032562  ( 0.164805  0.051450 -0.052479)
 45:   1403.02   0.014242   71.97  0.003168  ( 0.003762 -0.046265 -0.031829)
 46:   1429.95   0.025868  130.73  0.005645  (-0.043545  0.032022 -0.052190)
 47:   1525.75   0.044208  223.41  0.009042  (-0.005608  0.078733  0.053024)
 48:   1536.25   0.076488  386.54  0.015537  ( 0.112750  0.035614 -0.039451)
 49:   1593.72   0.012208   61.69  0.002390  ( 0.004387 -0.040358 -0.027248)
 50:   1627.15   0.055374  279.84  0.010620  ( 0.081024 -0.030492  0.055904)
 51:   1739.35   0.143926  727.34  0.025822  ( 0.012317 -0.131870 -0.091000)
 52:   1745.38   0.034012  171.88  0.006081  (-0.017988 -0.044791  0.061248)
 53:   1886.95   0.006209   31.38  0.001027  (-0.001651  0.026539  0.017883)
 54:   1888.07   0.018690   94.45  0.003089  (-0.052081 -0.013693  0.013757)
 55:   1902.33   0.014864   75.12  0.002438  (-0.044136  0.011817 -0.018727)
 56:   1903.09   0.003340   16.88  0.000548  (-0.002804 -0.017869 -0.014852)
 57:   1908.37   0.049503  250.17  0.008095  (-0.007010  0.074192  0.050411)
 58:   1913.25   0.041687  210.67  0.006799  ( 0.058577 -0.028545  0.050531)
 59:   1931.15   0.019536   98.72  0.003157  (-0.003966  0.031430 -0.046403)

--------------------------
THERMOCHEMISTRY AT 298.15K
--------------------------

Temperature         ...   298.15 K
Pressure            ...     1.00 atm
Total Mass          ...   150.03 AMU
Quasi RRHO          ...     True
Cut-Off Frequency   ...     1.00 cm^-1

Throughout the following assumptions are being made:
  (1) The electronic state is orbitally nondegenerate
  (2) There are no thermally accessible electronically excited states
  (3) Hindered rotations indicated by low frequency modes are not
      treated as such but are treated as vibrations and this may
      cause some error
  (4) All equations used are the standard statistical mechanics
      equations for an ideal gas
  (5) All vibrations are strictly harmonic

freq.      48.73  E(vib)   ...       0.53
freq.      51.40  E(vib)   ...       0.52
freq.      83.55  E(vib)   ...       0.48
freq.      94.97  E(vib)   ...       0.47
freq.     157.73  E(vib)   ...       0.40
freq.     162.09  E(vib)   ...       0.39
freq.     213.22  E(vib)   ...       0.34
freq.     217.41  E(vib)   ...       0.34
freq.     270.38  E(vib)   ...       0.29
freq.     300.57  E(vib)   ...       0.26
freq.     310.18  E(vib)   ...       0.26
freq.     364.60  E(vib)   ...       0.22
freq.     370.22  E(vib)   ...       0.21
freq.     392.20  E(vib)   ...       0.20
freq.     423.05  E(vib)   ...       0.18
freq.     442.81  E(vib)   ...       0.17
freq.     452.96  E(vib)   ...       0.16
freq.     501.86  E(vib)   ...       0.14
freq.     512.18  E(vib)   ...       0.14
freq.     522.53  E(vib)   ...       0.13
freq.     528.56  E(vib)   ...       0.13
freq.     537.10  E(vib)   ...       0.12
freq.     627.38  E(vib)   ...       0.09
freq.     667.06  E(vib)   ...       0.08
freq.     689.81  E(vib)   ...       0.07
freq.     711.68  E(vib)   ...       0.07
freq.     714.92  E(vib)   ...       0.07
freq.     741.32  E(vib)   ...       0.06
freq.     749.92  E(vib)   ...       0.06
freq.     795.86  E(vib)   ...       0.05
freq.     817.69  E(vib)   ...       0.05
freq.     825.22  E(vib)   ...       0.04
freq.    1027.28  E(vib)   ...       0.02
freq.    1124.52  E(vib)   ...       0.01
freq.    1171.21  E(vib)   ...       0.01
freq.    1179.81  E(vib)   ...       0.01
freq.    1216.73  E(vib)   ...       0.01
freq.    1347.84  E(vib)   ...       0.01
freq.    1382.18  E(vib)   ...       0.01
freq.    1403.02  E(vib)   ...       0.00
freq.    1429.95  E(vib)   ...       0.00
freq.    1525.75  E(vib)   ...       0.00
freq.    1536.25  E(vib)   ...       0.00
freq.    1593.72  E(vib)   ...       0.00
freq.    1627.15  E(vib)   ...       0.00
freq.    1739.35  E(vib)   ...       0.00
freq.    1745.38  E(vib)   ...       0.00
freq.    1886.95  E(vib)   ...       0.00
freq.    1888.07  E(vib)   ...       0.00
freq.    1902.33  E(vib)   ...       0.00
freq.    1903.09  E(vib)   ...       0.00
freq.    1908.37  E(vib)   ...       0.00
freq.    1913.25  E(vib)   ...       0.00
freq.    1931.15  E(vib)   ...       0.00

------------
INNER ENERGY
------------

The inner energy is: U= E(el) + E(ZPE) + E(vib) + E(rot) + E(trans)
    E(el)   - is the total energy from the electronic structure calculation
              = E(kin-el) + E(nuc-el) + E(el-el) + E(nuc-nuc)
    E(ZPE)  - the the zero temperature vibrational energy from the frequency calculation
    E(vib)  - the the finite temperature correction to E(ZPE) due to population
              of excited vibrational states
    E(rot)  - is the rotational thermal energy
    E(trans)- is the translational thermal energy

Summary of contributions to the inner energy U:
Electronic energy                ...  -1220.41611562 Eh
Zero point energy                ...      0.11090692 Eh      69.59 kcal/mol
Thermal vibrational correction   ...      0.01084557 Eh       6.81 kcal/mol
Thermal rotational correction    ...      0.00141627 Eh       0.89 kcal/mol
Thermal translational correction ...      0.00141627 Eh       0.89 kcal/mol
-----------------------------------------------------------------------
Total thermal energy                  -1220.29153059 Eh

Summary of corrections to the electronic energy:
(perhaps to be used in another calculation)
Total thermal correction                  0.01367811 Eh       8.58 kcal/mol
Non-thermal (ZPE) correction              0.11090692 Eh      69.59 kcal/mol
-----------------------------------------------------------------------
Total correction                          0.12458503 Eh      78.18 kcal/mol

--------
ENTHALPY
--------

The enthalpy is H = U + kB*T
                kB is Boltzmann's constant
Total thermal energy              ...  -1220.29153059 Eh
Thermal Enthalpy correction       ...      0.00094421 Eh       0.59 kcal/mol
-----------------------------------------------------------------------
Total Enthalpy                    ...  -1220.29058638 Eh

Note: Only C1 symmetry has been detected, increase convergence thresholds
      if your molecule has a higher symmetry. Symmetry factor of 1.0 is
      used for the rotational entropy correction.

Note: Rotational entropy computed according to Herzberg
Infrared and Raman Spectra, Chapter V,1, Van Nostrand Reinhold, 1945
Point Group:  C1, Symmetry Number:   1
Rotational constants in cm-1:     0.044117     0.025880     0.020534

Vibrational entropy computed according to the QRRHO of S. Grimme
Chem.Eur.J. 2012 18 9955 using a reference frequency of 100.0 cm-1

-------
ENTROPY
-------

The entropy contributions are T*S = T*(S(el)+S(vib)+S(rot)+S(trans))
     S(el)   - electronic entropy
     S(vib)  - vibrational entropy
     S(rot)  - rotational entropy
     S(trans)- translational entropy
The entropies will be listed as multiplied by the temperature to get
units of energy

Electronic entropy                ...      0.00000000 Eh      0.00 kcal/mol
Vibrational entropy               ...      0.01855499 Eh     11.64 kcal/mol
Rotational entropy                ...      0.01454370 Eh      9.13 kcal/mol
Translational entropy             ...      0.01944577 Eh     12.20 kcal/mol
-----------------------------------------------------------------------
Final entropy term                ...      0.05254447 Eh     32.97 kcal/mol

In case the symmetry of your molecule has not been determined correctly
or in case you have a reason to use a different symmetry number we print
out the resulting rotational entropy values for sn=1,12:

 non-linear molecules -----------------------------------
|  sn= 1 | S(rot)=       0.01454370 Eh      9.13 kcal/mol|
|  sn= 2 | S(rot)=       0.01388925 Eh      8.72 kcal/mol|
|  sn= 3 | S(rot)=       0.01350642 Eh      8.48 kcal/mol|
|  sn= 4 | S(rot)=       0.01323479 Eh      8.30 kcal/mol|
|  sn= 5 | S(rot)=       0.01302410 Eh      8.17 kcal/mol|
|  sn= 6 | S(rot)=       0.01285196 Eh      8.06 kcal/mol|

                             ****ORCA TERMINATED NORMALLY****
TOTAL RUN TIME: 0 days 0 hours 3 minutes 59 seconds 23 msec
