                         Program Version 5.0.4 -  RELEASE  -
|  1> # Geometry optimization for (AlH3)n cluster
|  2>
|  3> ! PBE 	# functional used for the MOF calculations later (non-expensive)
|  4> ! RKS	# closed shell for AlH3
|  5> ! D3BJ  # better geometries at low cost
|  6> ! pc-3 	# proven basiset from earlier work
|  7> ! Freq 	# Frequency analysis to check the stabiltity of the structures
|  8>
|  9> ! NoPop # population analysis not necessary
| 10>
| 11> ! RI 		# speed up calculation
| 12> ! AutoAux # no auxiliary basis set for pc implemented
| 13> ! DEFGRID3 # dense integration grid in space
| 14> ! TightSCF #
| 15> ! TightOpt # thight convergence criteria for geometry optimizations
| 16>
| 17> ! SmallPrint
| 18>
| 19>
| 20> * xyzFile 0 1 start.xyz # only maingroup elements H and Al so there should be no net spin
| 21>
| 22>                          ****END OF INPUT****
 Total Charge           Charge          ....    0
 Multiplicity           Mult            ....    1
 Number of Electrons    NEL             ....   16
Dispersion correction           -0.001101509
FINAL SINGLE POINT ENERGY      -244.035437292185
Dispersion correction            ... done
Dispersion correction           -0.001091122
FINAL SINGLE POINT ENERGY      -244.048607005488
Dispersion correction            ... done
Dispersion correction           -0.001083636
FINAL SINGLE POINT ENERGY      -244.056925285901
Dispersion correction            ... done
FINAL SINGLE POINT ENERGY      -244.060745455037
FINAL SINGLE POINT ENERGY      -244.061113471139
FINAL SINGLE POINT ENERGY      -244.061127067591
FINAL SINGLE POINT ENERGY      -244.061146178427
FINAL SINGLE POINT ENERGY      -244.061148247516
FINAL SINGLE POINT ENERGY      -244.061149189364
Dispersion correction           -0.001080061
FINAL SINGLE POINT ENERGY      -244.061149532007
Dispersion correction            ... done
Dispersion correction           -0.001080021
FINAL SINGLE POINT ENERGY      -244.061149608762
Dispersion correction            ... done
                    ***********************HURRAY********************

CARTESIAN COORDINATES (ANGSTROEM)
---------------------------------
  Al    -0.306890    1.327912   -0.208479
  H     -1.887094    1.301375   -0.409826
  H      0.313762    1.147183    1.247686
  H      0.652681    1.535120   -1.463301

 Multiplicity           Mult            ....    1
 Number of Electrons    NEL             ....   16
 Basis Dimension        Dim             ....  166

ORBITAL ENERGIES
----------------

  NO   OCC          E(Eh)            E(eV)
   0   2.0000     -55.358573     -1506.3834
   1   2.0000      -3.931858      -106.9913
   2   2.0000      -2.540285       -69.1247
   3   2.0000      -2.529338       -68.8268
   4   2.0000      -2.529338       -68.8268
   5   2.0000      -0.377166       -10.2632
   6   2.0000      -0.268210        -7.2984
   7   2.0000      -0.268209        -7.2983
   8   0.0000      -0.093948        -2.5564
   9   0.0000      -0.001066        -0.0290
  10   0.0000       0.013181         0.3587
  11   0.0000       0.013182         0.3587
  12   0.0000       0.035528         0.9668

-------
TIMINGS
-------

Dispersion correction           -0.001080018
FINAL SINGLE POINT ENERGY      -244.061149611879

DIPOLE MOMENT
-------------
                                X             Y             Z
Electronic contribution:     -0.00003       0.00008       0.00000
Nuclear contribution   :      0.00002      -0.00005      -0.00000
                        -----------------------------------------
Total Dipole Moment    :     -0.00001       0.00003       0.00000
                        -----------------------------------------
Magnitude (a.u.)       :      0.00004
Magnitude (Debye)      :      0.00009

Dispersion correction in the Hessian             ... done   (      1.7 sec)

VIBRATIONAL FREQUENCIES
-----------------------

Scaling factor for frequencies =  1.000000000  (already applied!)

   0:         0.00 cm**-1
   1:         0.00 cm**-1
   2:         0.00 cm**-1
   3:         0.00 cm**-1
   4:         0.00 cm**-1
   5:         0.00 cm**-1
   6:       679.22 cm**-1
   7:       766.19 cm**-1
   8:       766.20 cm**-1
   9:      1873.65 cm**-1
  10:      1886.80 cm**-1
  11:      1886.81 cm**-1

IR SPECTRUM
-----------

 Mode   freq       eps      Int      T**2         TX        TY        TZ
       cm**-1   L/(mol*cm) km/mol    a.u.
----------------------------------------------------------------------------
  6:    679.22   0.058863  297.47  0.027044  (-0.005602  0.162798  0.022580)
  7:    766.19   0.037921  191.63  0.015445  ( 0.002923  0.017175 -0.123050)
  8:    766.20   0.037920  191.63  0.015444  ( 0.124168  0.003802  0.003467)
  9:   1873.65   0.000000    0.00  0.000000  ( 0.000038  0.000004 -0.000014)
 10:   1886.80   0.048142  243.29  0.007962  ( 0.033228  0.012506 -0.081865)
 11:   1886.81   0.048142  243.29  0.007962  (-0.082759  0.001772 -0.033321)

--------------------------
THERMOCHEMISTRY AT 298.15K
--------------------------

Temperature         ... 298.15 K
Pressure            ... 1.00 atm
Total Mass          ... 30.01 AMU

Throughout the following assumptions are being made:
  (1) The electronic state is orbitally nondegenerate
  (2) There are no thermally accessible electronically excited states
  (3) Hindered rotations indicated by low frequency modes are not
      treated as such but are treated as vibrations and this may
      cause some error
  (4) All equations used are the standard statistical mechanics
      equations for an ideal gas
  (5) All vibrations are strictly harmonic

freq.     679.22  E(vib)   ...       0.08
freq.     766.19  E(vib)   ...       0.06
freq.     766.20  E(vib)   ...       0.06
freq.    1873.65  E(vib)   ...       0.00
freq.    1886.80  E(vib)   ...       0.00
freq.    1886.81  E(vib)   ...       0.00

------------
INNER ENERGY
------------

The inner energy is: U= E(el) + E(ZPE) + E(vib) + E(rot) + E(trans)
    E(el)   - is the total energy from the electronic structure calculation
              = E(kin-el) + E(nuc-el) + E(el-el) + E(nuc-nuc)
    E(ZPE)  - the the zero temperature vibrational energy from the frequency calculation
    E(vib)  - the the finite temperature correction to E(ZPE) due to population
              of excited vibrational states
    E(rot)  - is the rotational thermal energy
    E(trans)- is the translational thermal energy

Summary of contributions to the inner energy U:
Electronic energy                ...   -244.06114961 Eh
Zero point energy                ...      0.01790382 Eh      11.23 kcal/mol
Thermal vibrational correction   ...      0.00030171 Eh       0.19 kcal/mol
Thermal rotational correction    ...      0.00141627 Eh       0.89 kcal/mol
Thermal translational correction ...      0.00141627 Eh       0.89 kcal/mol
-----------------------------------------------------------------------
Total thermal energy                   -244.04011154 Eh

Summary of corrections to the electronic energy:
(perhaps to be used in another calculation)
Total thermal correction                  0.00313425 Eh       1.97 kcal/mol
Non-thermal (ZPE) correction              0.01790382 Eh      11.23 kcal/mol
-----------------------------------------------------------------------
Total correction                          0.02103807 Eh      13.20 kcal/mol

--------
ENTHALPY
--------

The enthalpy is H = U + kB*T
                kB is Boltzmann's constant
Total free energy                 ...   -244.04011154 Eh
Thermal Enthalpy correction       ...      0.00094421 Eh       0.59 kcal/mol
-----------------------------------------------------------------------
Total Enthalpy                    ...   -244.03916733 Eh

Note: Rotational entropy computed according to Herzberg
Infrared and Raman Spectra, Chapter V,1, Van Nostrand Reinhold, 1945
Point Group:  D3h, Symmetry Number:   6
Rotational constants in cm-1:     4.392455     4.392388     2.196211

Vibrational entropy computed according to the QRRHO of S. Grimme
Chem.Eur.J. 2012 18 9955

-------
ENTROPY
-------

The entropy contributions are T*S = T*(S(el)+S(vib)+S(rot)+S(trans))
     S(el)   - electronic entropy
     S(vib)  - vibrational entropy
     S(rot)  - rotational entropy
     S(trans)- translational entropy
The entropies will be listed as multiplied by the temperature to get
units of energy

Electronic entropy                ...      0.00000000 Eh      0.00 kcal/mol
Vibrational entropy               ...      0.00038603 Eh      0.24 kcal/mol
Rotational entropy                ...      0.00605038 Eh      3.80 kcal/mol
Translational entropy             ...      0.01716637 Eh     10.77 kcal/mol
-----------------------------------------------------------------------
Final entropy term                ...      0.02360278 Eh     14.81 kcal/mol

In case the symmetry of your molecule has not been determined correctly
or in case you have a reason to use a different symmetry number we print
out the resulting rotational entropy values for sn=1,12 :
 --------------------------------------------------------
|  sn= 1 | S(rot)=       0.00774213 Eh      4.86 kcal/mol|
|  sn= 2 | S(rot)=       0.00708767 Eh      4.45 kcal/mol|
|  sn= 3 | S(rot)=       0.00670484 Eh      4.21 kcal/mol|
|  sn= 4 | S(rot)=       0.00643321 Eh      4.04 kcal/mol|
|  sn= 5 | S(rot)=       0.00622253 Eh      3.90 kcal/mol|
|  sn= 6 | S(rot)=       0.00605038 Eh      3.80 kcal/mol|
|  sn= 7 | S(rot)=       0.00590483 Eh      3.71 kcal/mol|
|  sn= 8 | S(rot)=       0.00577876 Eh      3.63 kcal/mol|
|  sn= 9 | S(rot)=       0.00566755 Eh      3.56 kcal/mol|
|  sn=10 | S(rot)=       0.00556807 Eh      3.49 kcal/mol|
|  sn=11 | S(rot)=       0.00547808 Eh      3.44 kcal/mol|
|  sn=12 | S(rot)=       0.00539592 Eh      3.39 kcal/mol|
 --------------------------------------------------------

-------------------
GIBBS FREE ENERGY
-------------------

The Gibbs free energy is G = H - T*S

Total enthalpy                    ...   -244.03916733 Eh
Total entropy correction          ...     -0.02360278 Eh    -14.81 kcal/mol
-----------------------------------------------------------------------
Final Gibbs free energy         ...   -244.06277011 Eh

For completeness - the Gibbs free energy minus the electronic energy
G-E(el)                           ...     -0.00162050 Eh     -1.02 kcal/mol

                             ****ORCA TERMINATED NORMALLY****
TOTAL RUN TIME: 0 days 0 hours 7 minutes 33 seconds 407 msec
