                         Program Version 6.1.0  -  RELEASE   -
|  1> # Geometry optimization for (AlH3)n cluster
|  2>
|  3> %pal nprocs 24  end
|  4>
|  5> %geom MaxIter 500 end
|  6>
|  7> %cpcm
|  8> 	epsilon 1.95778548766667
|  9> end
| 10>
| 11> ! PBE def2-TZVP
| 12> ! RKS	# closed shell for AlH3
| 13> ! D3    #  dispersion correction
| 14> ! Freq 	# Frequency analysis to check the stabiltity of the structures
| 15>
| 16> ! NoPop # population analysis not necessary
| 17>
| 18> ! DEFGRID3
| 19> ! TightSCF
| 20> ! TightOpt
| 21>
| 22> ! SmallPrint
| 23>
| 24>
| 25> * xyzFile 0 1 start.xyz # only maingroup elements H and Al so there should be no net spin
| 26>
| 27>                          ****END OF INPUT****
 Total Charge           Charge          ....    0
 Multiplicity           Mult            ....    1
 Number of Electrons    NEL             ....   32
Dispersion correction           -0.004449808
FINAL SINGLE POINT ENERGY      -488.169469988382
Dispersion correction             ... done (  0.1 sec)
Dispersion correction           -0.004449724
FINAL SINGLE POINT ENERGY      -488.169471140846
Dispersion correction             ... done (  0.1 sec)
Dispersion correction           -0.004449524
FINAL SINGLE POINT ENERGY      -488.169473658260
Dispersion correction             ... done (  0.1 sec)
Dispersion correction           -0.004449627
FINAL SINGLE POINT ENERGY      -488.169473925597
Dispersion correction             ... done (  0.1 sec)
Dispersion correction           -0.004450046
FINAL SINGLE POINT ENERGY      -488.169474439215
Dispersion correction             ... done (  0.1 sec)
                    ***********************HURRAY********************

CARTESIAN COORDINATES (ANGSTROEM)
---------------------------------
  Al     0.000051   -0.002882    2.339191
  Al    -0.000338   -0.002334   -0.269988
  H      1.164174   -0.052347    1.034417
  H     -0.064091   -1.430475   -0.960568
  H     -1.164227    0.052002    1.034787
  H      0.063669    1.421407    3.037593
  H     -0.063524   -1.431307    3.029195
  H      0.063047    1.422245   -0.967817

 Multiplicity           Mult            ....    1
 Number of Electrons    NEL             ....   32
 Basis Dimension        Dim             ....  110

ORBITAL ENERGIES
----------------

  NO   OCC          E(Eh)            E(eV)
   0   2.0000     -55.371912     -1506.7463
   1   2.0000     -55.371900     -1506.7460
   2   2.0000      -3.932740      -107.0153
   3   2.0000      -3.932685      -107.0138
   4   2.0000      -2.538528       -69.0769
   5   2.0000      -2.538456       -69.0749
   6   2.0000      -2.535114       -68.9840
   7   2.0000      -2.534442       -68.9657
   8   2.0000      -2.530302       -68.8530
   9   2.0000      -2.530246       -68.8515
  10   2.0000      -0.460071       -12.5192
  11   2.0000      -0.346155        -9.4194
  12   2.0000      -0.310451        -8.4478
  13   2.0000      -0.289287        -7.8719
  14   2.0000      -0.280234        -7.6255
  15   2.0000      -0.266420        -7.2497
  16   0.0000      -0.061943        -1.6855
  17   0.0000      -0.017366        -0.4726
  18   0.0000      -0.011122        -0.3026
  19   0.0000      -0.010877        -0.2960
  20   0.0000       0.005507         0.1498

-------
TIMINGS
-------

Dispersion correction           -0.004450043
FINAL SINGLE POINT ENERGY      -488.169474470760

DIPOLE MOMENT
-------------

Method             : SCF
Type of density    : Electron Density
Multiplicity       :   1
Irrep              :   0
Energy             :  -488.1650244281206596 Eh
Basis              : AO
                                X                 Y                 Z
Electronic contribution:      0.000181128       0.005427379       0.000001178
Nuclear contribution   :     -0.000081430      -0.002469907      -0.000000496
                        -----------------------------------------
Total Dipole Moment    :      0.000099698       0.002957472       0.000000681
                        -----------------------------------------
Magnitude (a.u.)       :      0.002959152
Magnitude (Debye)      :      0.007521567

VIBRATIONAL FREQUENCIES
-----------------------

Scaling factor for frequencies =  1.000000000  (already applied!)

     0:       0.00 cm**-1
     1:       0.00 cm**-1
     2:       0.00 cm**-1
     3:       0.00 cm**-1
     4:       0.00 cm**-1
     5:       0.00 cm**-1
     6:     193.62 cm**-1
     7:     365.58 cm**-1
     8:     402.10 cm**-1
     9:     446.25 cm**-1
    10:     450.94 cm**-1
    11:     583.20 cm**-1
    12:     656.78 cm**-1
    13:     701.67 cm**-1
    14:     705.13 cm**-1
    15:     772.90 cm**-1
    16:    1264.67 cm**-1
    17:    1366.07 cm**-1
    18:    1404.79 cm**-1
    19:    1484.82 cm**-1
    20:    1890.57 cm**-1
    21:    1895.80 cm**-1
    22:    1903.85 cm**-1
    23:    1910.12 cm**-1

IR SPECTRUM
-----------

 Mode   freq       eps      Int      T**2         TX        TY        TZ
       cm**-1   L/(mol*cm) km/mol    a.u.
----------------------------------------------------------------------------
  6:    193.62   0.003988   20.15  0.006428  (-0.002588 -0.080130 -0.000015)
  7:    365.58   0.000000    0.00  0.000000  ( 0.000014  0.000332  0.000000)
  8:    402.10   0.000000    0.00  0.000000  ( 0.000002  0.000000  0.000087)
  9:    446.25   0.000000    0.00  0.000000  (-0.000002 -0.000000  0.000279)
 10:    450.94   0.000000    0.00  0.000000  (-0.000000  0.000001 -0.000032)
 11:    583.20   0.065979  333.43  0.035305  ( 0.187697 -0.008623 -0.000024)
 12:    656.78   0.151426  765.25  0.071949  (-0.000036  0.000058 -0.268234)
 13:    701.67   0.000002    0.01  0.000001  ( 0.000030 -0.000979 -0.000001)
 14:    705.13   0.000004    0.02  0.000002  (-0.001282  0.000243 -0.000012)
 15:    772.90   0.046836  236.69  0.018910  (-0.007160 -0.137328 -0.000030)
 16:   1264.67   0.069529  351.37  0.017157  ( 0.130844 -0.006032 -0.000025)
 17:   1366.07   0.000000    0.00  0.000000  ( 0.000000  0.000001  0.000159)
 18:   1404.79   0.235612  1190.69  0.052339  (-0.000037  0.000049 -0.228778)
 19:   1484.82   0.000000    0.00  0.000000  (-0.000007  0.000184  0.000001)
 20:   1890.57   0.031015  156.74  0.005119  (-0.000011  0.000010 -0.071550)
 21:   1895.80   0.000004    0.02  0.000001  ( 0.000035  0.000777  0.000001)
 22:   1903.85   0.000004    0.02  0.000001  (-0.000001 -0.000002 -0.000804)
 23:   1910.12   0.100832  509.56  0.016473  ( 0.005738  0.128220  0.000023)

--------------------------
THERMOCHEMISTRY AT 298.15K
--------------------------

Temperature         ...   298.15 K
Pressure            ...     1.00 atm
Total Mass          ...    60.01 AMU
Quasi RRHO          ...     True
Cut-Off Frequency   ...     1.00 cm^-1

Throughout the following assumptions are being made:
  (1) The electronic state is orbitally nondegenerate
  (2) There are no thermally accessible electronically excited states
  (3) Hindered rotations indicated by low frequency modes are not
      treated as such but are treated as vibrations and this may
      cause some error
  (4) All equations used are the standard statistical mechanics
      equations for an ideal gas
  (5) All vibrations are strictly harmonic

freq.     193.62  E(vib)   ...       0.36
freq.     365.58  E(vib)   ...       0.22
freq.     402.10  E(vib)   ...       0.19
freq.     446.25  E(vib)   ...       0.17
freq.     450.94  E(vib)   ...       0.17
freq.     583.20  E(vib)   ...       0.11
freq.     656.78  E(vib)   ...       0.08
freq.     701.67  E(vib)   ...       0.07
freq.     705.13  E(vib)   ...       0.07
freq.     772.90  E(vib)   ...       0.05
freq.    1264.67  E(vib)   ...       0.01
freq.    1366.07  E(vib)   ...       0.01
freq.    1404.79  E(vib)   ...       0.00
freq.    1484.82  E(vib)   ...       0.00
freq.    1890.57  E(vib)   ...       0.00
freq.    1895.80  E(vib)   ...       0.00
freq.    1903.85  E(vib)   ...       0.00
freq.    1910.12  E(vib)   ...       0.00

------------
INNER ENERGY
------------

The inner energy is: U= E(el) + E(ZPE) + E(vib) + E(rot) + E(trans)
    E(el)   - is the total energy from the electronic structure calculation
              = E(kin-el) + E(nuc-el) + E(el-el) + E(nuc-nuc)
    E(ZPE)  - the the zero temperature vibrational energy from the frequency calculation
    E(vib)  - the the finite temperature correction to E(ZPE) due to population
              of excited vibrational states
    E(rot)  - is the rotational thermal energy
    E(trans)- is the translational thermal energy

Summary of contributions to the inner energy U:
Electronic energy                ...   -488.16947447 Eh
Zero point energy                ...      0.04191574 Eh      26.30 kcal/mol
Thermal vibrational correction   ...      0.00240019 Eh       1.51 kcal/mol
Thermal rotational correction    ...      0.00141627 Eh       0.89 kcal/mol
Thermal translational correction ...      0.00141627 Eh       0.89 kcal/mol
-----------------------------------------------------------------------
Total thermal energy                   -488.12232600 Eh

Summary of corrections to the electronic energy:
(perhaps to be used in another calculation)
Total thermal correction                  0.00523274 Eh       3.28 kcal/mol
Non-thermal (ZPE) correction              0.04191574 Eh      26.30 kcal/mol
-----------------------------------------------------------------------
Total correction                          0.04714847 Eh      29.59 kcal/mol

--------
ENTHALPY
--------

The enthalpy is H = U + kB*T
                kB is Boltzmann's constant
Total thermal energy              ...   -488.12232600 Eh
Thermal Enthalpy correction       ...      0.00094421 Eh       0.59 kcal/mol
-----------------------------------------------------------------------
Total Enthalpy                    ...   -488.12138179 Eh

Note: Rotational entropy computed according to Herzberg
Infrared and Raman Spectra, Chapter V,1, Van Nostrand Reinhold, 1945
Point Group:  Cs, Symmetry Number:   1
Rotational constants in cm-1:     1.538482     0.152295     0.145109

Vibrational entropy computed according to the QRRHO of S. Grimme
Chem.Eur.J. 2012 18 9955 using a reference frequency of 100.0 cm-1

-------
ENTROPY
-------

The entropy contributions are T*S = T*(S(el)+S(vib)+S(rot)+S(trans))
     S(el)   - electronic entropy
     S(vib)  - vibrational entropy
     S(rot)  - rotational entropy
     S(trans)- translational entropy
The entropies will be listed as multiplied by the temperature to get
units of energy

Electronic entropy                ...      0.00000000 Eh      0.00 kcal/mol
Vibrational entropy               ...      0.00362169 Eh      2.27 kcal/mol
Rotational entropy                ...      0.01110714 Eh      6.97 kcal/mol
Translational entropy             ...      0.01814806 Eh     11.39 kcal/mol
-----------------------------------------------------------------------
Final entropy term                ...      0.03287688 Eh     20.63 kcal/mol

In case the symmetry of your molecule has not been determined correctly
or in case you have a reason to use a different symmetry number we print
out the resulting rotational entropy values for sn=1,12:

 non-linear molecules -----------------------------------
|  sn= 1 | S(rot)=       0.01110714 Eh      6.97 kcal/mol|
|  sn= 2 | S(rot)=       0.01045269 Eh      6.56 kcal/mol|
|  sn= 3 | S(rot)=       0.01006985 Eh      6.32 kcal/mol|
|  sn= 4 | S(rot)=       0.00979823 Eh      6.15 kcal/mol|
|  sn= 5 | S(rot)=       0.00958754 Eh      6.02 kcal/mol|
|  sn= 6 | S(rot)=       0.00941540 Eh      5.91 kcal/mol|
|  sn= 7 | S(rot)=       0.00926985 Eh      5.82 kcal/mol|
|  sn= 8 | S(rot)=       0.00914377 Eh      5.74 kcal/mol|
|  sn= 9 | S(rot)=       0.00903256 Eh      5.67 kcal/mol|
|  sn=10 | S(rot)=       0.00893308 Eh      5.61 kcal/mol|
|  sn=11 | S(rot)=       0.00884309 Eh      5.55 kcal/mol|
|  sn=12 | S(rot)=       0.00876094 Eh      5.50 kcal/mol|
 linear molecules ---------------------------------------
|  Dinfh | S(rot)=       0.00714833 Eh      4.49 kcal/mol|
|  Cinfv | S(rot)=       0.00780279 Eh      4.90 kcal/mol|
 --------------------------------------------------------

-------------------
GIBBS FREE ENERGY
-------------------

The Gibbs free energy is G = H - T*S

Total enthalpy                    ...   -488.12138179 Eh
Total entropy correction          ...     -0.03287688 Eh    -20.63 kcal/mol
-----------------------------------------------------------------------
Final Gibbs free energy         ...   -488.15425867 Eh

For completeness - the Gibbs free energy minus the electronic energy
G-E(el)                           ...      0.01521580 Eh      9.55 kcal/mol

                             ****ORCA TERMINATED NORMALLY****
TOTAL RUN TIME: 0 days 0 hours 1 minutes 17 seconds 604 msec
