                         Program Version 6.1.0  -  RELEASE   -
|  1> # Geometry optimization for (AlH3)n cluster
|  2>
|  3> %pal nprocs 24  end
|  4>
|  5> %geom MaxIter 500 end
|  6>
|  7> %cpcm
|  8> 	epsilon 1.95778548766667
|  9> end
| 10>
| 11> ! PBE def2-TZVP
| 12> ! RKS	# closed shell for AlH3
| 13> ! D3    #  dispersion correction
| 14> ! Freq 	# Frequency analysis to check the stabiltity of the structures
| 15>
| 16> ! NoPop # population analysis not necessary
| 17>
| 18> ! DEFGRID3
| 19> ! TightSCF
| 20> ! TightOpt
| 21>
| 22> ! SmallPrint
| 23>
| 24>
| 25> * xyzFile 0 1 start.xyz # only maingroup elements H and Al so there should be no net spin
| 26>
| 27>                          ****END OF INPUT****
 Total Charge           Charge          ....    0
 Multiplicity           Mult            ....    1
 Number of Electrons    NEL             ....  128
Dispersion correction           -0.042472966
FINAL SINGLE POINT ENERGY     -1952.751828082663
Dispersion correction             ... done (  0.1 sec)
Dispersion correction           -0.042478428
FINAL SINGLE POINT ENERGY     -1952.751846655589
Dispersion correction             ... done (  0.1 sec)
Dispersion correction           -0.042500486
FINAL SINGLE POINT ENERGY     -1952.751893659714
Dispersion correction             ... done (  0.1 sec)
FINAL SINGLE POINT ENERGY     -1952.751899848701
FINAL SINGLE POINT ENERGY     -1952.751920916995
FINAL SINGLE POINT ENERGY     -1952.751924958363
FINAL SINGLE POINT ENERGY     -1952.751928603205
FINAL SINGLE POINT ENERGY     -1952.751932140547
FINAL SINGLE POINT ENERGY     -1952.751936194088
FINAL SINGLE POINT ENERGY     -1952.751939692831
FINAL SINGLE POINT ENERGY     -1952.751963171511
FINAL SINGLE POINT ENERGY     -1952.751963461977
FINAL SINGLE POINT ENERGY     -1952.751963656657
FINAL SINGLE POINT ENERGY     -1952.751963805031
FINAL SINGLE POINT ENERGY     -1952.751963973705
FINAL SINGLE POINT ENERGY     -1952.751964122279
FINAL SINGLE POINT ENERGY     -1952.751964229465
Dispersion correction             ... done (  0.1 sec)
Dispersion correction           -0.042277157
FINAL SINGLE POINT ENERGY     -1952.751964305891
Dispersion correction             ... done (  0.1 sec)
Dispersion correction           -0.042277408
FINAL SINGLE POINT ENERGY     -1952.751964379845
Dispersion correction             ... done (  0.1 sec)
                    ***********************HURRAY********************

CARTESIAN COORDINATES (ANGSTROEM)
---------------------------------
  Al    -0.187985    2.446840    0.649606
  Al    -2.951880    1.160925    1.338170
  Al    -0.173776   -0.225009    0.864026
  Al     2.650799    1.186740    0.811747
  Al     0.186473   -0.621984    4.131384
  Al    -2.219464    1.631270    4.562248
  Al     2.187739    1.977743    3.929935
  Al     0.287938    1.386206    6.504851
  H      0.735272    1.541445    8.019962
  H      0.465943   -0.140887    5.875490
  H      1.110264    2.291198    5.400994
  H     -1.296880    1.699860    6.181709
  H     -1.594863    2.976517    3.984248
  H     -3.550089    1.257927    5.349488
  H     -3.087032    1.172803    2.968880
  H     -4.326803    1.059694    0.548162
  H     -1.279948    0.218831    4.168768
  H     -1.945770   -0.129514    1.063506
  H     -0.063907   -0.905521    2.429477
  H     -0.239578   -1.469315   -0.131639
  H      1.617013   -0.114429    0.819813
  H      3.085110    1.363288    2.384444
  H      3.856085    1.018654   -0.209341
  H      3.520028    1.774977    4.775213
  H      0.357661   -2.143788    4.550376
  H      1.421313    0.440049    3.708973
  H     -0.222285    4.009045    0.403409
  H     -2.007213    2.443209    0.890838
  H      1.622940    2.429817    0.442612
  H     -0.306298    1.134429   -0.406879
  H      1.526844    3.221741    3.183627
  H     -0.073932    1.353240    1.910283

 Multiplicity           Mult            ....    1
 Number of Electrons    NEL             ....  128
 Basis Dimension        Dim             ....  440

ORBITAL ENERGIES
----------------

  NO   OCC          E(Eh)            E(eV)
   0   2.0000     -55.401230     -1507.5441
   1   2.0000     -55.393931     -1507.3455
   2   2.0000     -55.390874     -1507.2623
   3   2.0000     -55.379779     -1506.9604
   4   2.0000     -55.378993     -1506.9390
   5   2.0000     -55.377648     -1506.9024
   6   2.0000     -55.376789     -1506.8790
   7   2.0000     -55.376274     -1506.8650
   8   2.0000      -3.957823      -107.6978
   9   2.0000      -3.949319      -107.4664
  10   2.0000      -3.948893      -107.4548
  11   2.0000      -3.939801      -107.2074
  12   2.0000      -3.939031      -107.1865
  13   2.0000      -3.936679      -107.1225
  14   2.0000      -3.935795      -107.0984
  15   2.0000      -3.935000      -107.0768
  16   2.0000      -2.561680       -69.7069
  17   2.0000      -2.560610       -69.6777
  18   2.0000      -2.556851       -69.5755
  19   2.0000      -2.553157       -69.4749
  20   2.0000      -2.553011       -69.4710
  21   2.0000      -2.552839       -69.4663
  22   2.0000      -2.552221       -69.4495
  23   2.0000      -2.548388       -69.3452
  24   2.0000      -2.546355       -69.2899
  25   2.0000      -2.543486       -69.2118
  26   2.0000      -2.542738       -69.1914
  27   2.0000      -2.542291       -69.1793
  28   2.0000      -2.541532       -69.1586
  29   2.0000      -2.540467       -69.1296
  30   2.0000      -2.540174       -69.1216
  31   2.0000      -2.539662       -69.1077
  32   2.0000      -2.539499       -69.1033
  33   2.0000      -2.539480       -69.1028
  34   2.0000      -2.539106       -69.0926
  35   2.0000      -2.538795       -69.0841
  36   2.0000      -2.538303       -69.0707
  37   2.0000      -2.535841       -69.0037
  38   2.0000      -2.532972       -68.9257
  39   2.0000      -2.532066       -68.9010
  40   2.0000      -0.515277       -14.0214
  41   2.0000      -0.481858       -13.1120
  42   2.0000      -0.452151       -12.3036
  43   2.0000      -0.420545       -11.4436
  44   2.0000      -0.411892       -11.2081
  45   2.0000      -0.405648       -11.0383
  46   2.0000      -0.385410       -10.4875
  47   2.0000      -0.367193        -9.9918
  48   2.0000      -0.338661        -9.2154
  49   2.0000      -0.336203        -9.1485
  50   2.0000      -0.333902        -9.0859
  51   2.0000      -0.321546        -8.7497
  52   2.0000      -0.318894        -8.6775
  53   2.0000      -0.308120        -8.3844
  54   2.0000      -0.296515        -8.0686
  55   2.0000      -0.295410        -8.0385
  56   2.0000      -0.293422        -7.9844
  57   2.0000      -0.275956        -7.5091
  58   2.0000      -0.269192        -7.3251
  59   2.0000      -0.265852        -7.2342
  60   2.0000      -0.263152        -7.1607
  61   2.0000      -0.262708        -7.1487
  62   2.0000      -0.257961        -7.0195
  63   2.0000      -0.247238        -6.7277
  64   0.0000      -0.080150        -2.1810
  65   0.0000      -0.077369        -2.1053
  66   0.0000      -0.067849        -1.8463
  67   0.0000      -0.045232        -1.2308
  68   0.0000      -0.041118        -1.1189

-------
TIMINGS
-------

Dispersion correction           -0.042277837
FINAL SINGLE POINT ENERGY     -1952.751964436207

DIPOLE MOMENT
-------------

Method             : SCF
Type of density    : Electron Density
Multiplicity       :   1
Irrep              :   0
Energy             : -1952.7096865990442893 Eh
Basis              : AO
                                X                 Y                 Z
Electronic contribution:      0.003856136       0.367620570      -0.001167667
Nuclear contribution   :     -0.013684331      -0.283988491      -0.055487632
                        -----------------------------------------
Total Dipole Moment    :     -0.009828195       0.083632079      -0.056655299
                        -----------------------------------------
Magnitude (a.u.)       :      0.101492566
Magnitude (Debye)      :      0.257973601

VIBRATIONAL FREQUENCIES
-----------------------

Scaling factor for frequencies =  1.000000000  (already applied!)

     0:       0.00 cm**-1
     1:       0.00 cm**-1
     2:       0.00 cm**-1
     3:       0.00 cm**-1
     4:       0.00 cm**-1
     5:       0.00 cm**-1
     6:      39.93 cm**-1
     7:      60.49 cm**-1
     8:      89.14 cm**-1
     9:     106.03 cm**-1
    10:     114.84 cm**-1
    11:     130.54 cm**-1
    12:     138.80 cm**-1
    13:     166.90 cm**-1
    14:     177.25 cm**-1
    15:     190.60 cm**-1
    16:     197.33 cm**-1
    17:     204.02 cm**-1
    18:     210.35 cm**-1
    19:     225.42 cm**-1
    20:     234.37 cm**-1
    21:     249.69 cm**-1
    22:     260.13 cm**-1
    23:     268.04 cm**-1
    24:     279.76 cm**-1
    25:     300.46 cm**-1
    26:     304.55 cm**-1
    27:     331.08 cm**-1
    28:     335.37 cm**-1
    29:     351.02 cm**-1
    30:     357.33 cm**-1
    31:     388.98 cm**-1
    32:     390.36 cm**-1
    33:     408.50 cm**-1
    34:     432.02 cm**-1
    35:     452.84 cm**-1
    36:     469.60 cm**-1
    37:     477.04 cm**-1
    38:     495.72 cm**-1
    39:     533.31 cm**-1
    40:     540.65 cm**-1
    41:     546.92 cm**-1
    42:     569.96 cm**-1
    43:     572.30 cm**-1
    44:     582.49 cm**-1
    45:     596.60 cm**-1
    46:     603.08 cm**-1
    47:     608.91 cm**-1
    48:     630.56 cm**-1
    49:     646.05 cm**-1
    50:     676.12 cm**-1
    51:     696.15 cm**-1
    52:     708.93 cm**-1
    53:     718.56 cm**-1
    54:     739.11 cm**-1
    55:     761.65 cm**-1
    56:     776.20 cm**-1
    57:     816.89 cm**-1
    58:     834.69 cm**-1
    59:     844.31 cm**-1
    60:     865.40 cm**-1
    61:     874.60 cm**-1
    62:     909.21 cm**-1
    63:     926.92 cm**-1
    64:     934.55 cm**-1
    65:     951.10 cm**-1
    66:     970.73 cm**-1
    67:     983.73 cm**-1
    68:    1026.56 cm**-1
    69:    1027.50 cm**-1
    70:    1033.24 cm**-1
    71:    1169.85 cm**-1
    72:    1545.33 cm**-1
    73:    1634.55 cm**-1
    74:    1676.16 cm**-1
    75:    1709.17 cm**-1
    76:    1728.98 cm**-1
    77:    1738.13 cm**-1
    78:    1743.20 cm**-1
    79:    1769.69 cm**-1
    80:    1798.72 cm**-1
    81:    1805.41 cm**-1
    82:    1808.94 cm**-1
    83:    1824.26 cm**-1
    84:    1833.53 cm**-1
    85:    1864.92 cm**-1
    86:    1876.03 cm**-1
    87:    1882.27 cm**-1
    88:    1885.57 cm**-1
    89:    1894.11 cm**-1
    90:    1895.02 cm**-1
    91:    1898.95 cm**-1
    92:    1903.19 cm**-1
    93:    1916.50 cm**-1
    94:    1919.91 cm**-1
    95:    1946.62 cm**-1

IR SPECTRUM
-----------

 Mode   freq       eps      Int      T**2         TX        TY        TZ
       cm**-1   L/(mol*cm) km/mol    a.u.
----------------------------------------------------------------------------
  6:     39.93   0.000138    0.70  0.001082  ( 0.032214 -0.006161  0.002523)
  7:     60.49   0.000018    0.09  0.000094  (-0.004551 -0.000502  0.008553)
  8:     89.14   0.000236    1.19  0.000827  (-0.027229  0.007987  0.004667)
  9:    106.03   0.000263    1.33  0.000773  (-0.010417 -0.024013  0.009372)
 10:    114.84   0.000174    0.88  0.000472  ( 0.018820 -0.010612 -0.002281)
 11:    130.54   0.000099    0.50  0.000236  ( 0.014136  0.001031 -0.005906)
 12:    138.80   0.000230    1.16  0.000517  (-0.018684  0.006412  0.011249)
 13:    166.90   0.000327    1.65  0.000611  (-0.011041 -0.009015 -0.020196)
 14:    177.25   0.000386    1.95  0.000679  ( 0.007459 -0.017560  0.017755)
 15:    190.60   0.000527    2.66  0.000863  ( 0.000694 -0.023086  0.018159)
 16:    197.33   0.001102    5.57  0.001743  (-0.018711 -0.032895  0.017641)
 17:    204.02   0.000469    2.37  0.000717  (-0.016027 -0.007771  0.020005)
 18:    210.35   0.001600    8.09  0.002374  (-0.038064  0.015664  0.026066)
 19:    225.42   0.001298    6.56  0.001797  (-0.035538  0.000585  0.023108)
 20:    234.37   0.000964    4.87  0.001283  ( 0.035005 -0.004973  0.005751)
 21:    249.69   0.002374   12.00  0.002967  ( 0.023707  0.042956  0.023666)
 22:    260.13   0.002569   12.98  0.003082  (-0.049022  0.025778  0.003750)
 23:    268.04   0.000320    1.62  0.000372  ( 0.011138  0.015743 -0.000507)
 24:    279.76   0.004136   20.90  0.004614  (-0.065974 -0.015614  0.004139)
 25:    300.46   0.006874   34.74  0.007140  (-0.009558  0.008252  0.083548)
 26:    304.55   0.000208    1.05  0.000213  ( 0.010403 -0.004920  0.008995)
 27:    331.08   0.004802   24.27  0.004526  (-0.006454 -0.033801  0.057813)
 28:    335.37   0.005798   29.30  0.005395  ( 0.015953  0.037480  0.061124)
 29:    351.02   0.002147   10.85  0.001909  ( 0.021803 -0.013487  0.035376)
 30:    357.33   0.000545    2.75  0.000476  (-0.004466  0.020538 -0.005852)
 31:    388.98   0.021781  110.07  0.017474  ( 0.085176 -0.015820  0.099842)
 32:    390.36   0.023850  120.53  0.019066  (-0.037209 -0.002845  0.132941)
 33:    408.50   0.001877    9.49  0.001434  (-0.028912  0.024445  0.000589)
 34:    432.02   0.003712   18.76  0.002681  (-0.015131  0.044885 -0.020920)
 35:    452.84   0.001570    7.93  0.001082  ( 0.030383 -0.012542  0.001158)
 36:    469.60   0.007579   38.30  0.005037  (-0.033011 -0.054259  0.031667)
 37:    477.04   0.013675   69.11  0.008946  (-0.040089 -0.071672 -0.046922)
 38:    495.72   0.005911   29.87  0.003721  (-0.032109  0.050840 -0.010263)
 39:    533.31   0.005456   27.57  0.003193  ( 0.047243  0.014466 -0.027416)
 40:    540.65   0.002729   13.79  0.001575  ( 0.000359  0.019192  0.034738)
 41:    546.92   0.013585   68.65  0.007751  ( 0.057239 -0.037240  0.055571)
 42:    569.96   0.008395   42.43  0.004597  (-0.067198 -0.008645 -0.002493)
 43:    572.30   0.014940   75.50  0.008147  (-0.066003 -0.004941  0.061367)
 44:    582.49   0.022974  116.10  0.012308  ( 0.071160 -0.084585 -0.009487)
 45:    596.60   0.026150  132.15  0.013678  ( 0.031382  0.101348 -0.049212)
 46:    603.08   0.045132  228.08  0.023354  (-0.048623 -0.041157 -0.138909)
 47:    608.91   0.059051  298.42  0.030263  ( 0.156897  0.021301 -0.072060)
 48:    630.56   0.190475  962.58  0.094266  (-0.018441 -0.066458 -0.299181)
 49:    646.05   0.049447  249.89  0.023885  (-0.110385  0.095499 -0.050791)
 50:    676.12   0.026072  131.76  0.012034  (-0.084585  0.009787 -0.069160)
 51:    696.15   0.284311  1436.79  0.127448  ( 0.092261  0.001895  0.344865)
 52:    708.93   0.083932  424.16  0.036946  (-0.160584 -0.052826  0.091480)
 53:    718.56   0.009881   49.94  0.004291  (-0.003280 -0.014597 -0.063777)
 54:    739.11   0.089712  453.37  0.037878  ( 0.179889  0.054837 -0.050106)
 55:    761.65   0.278594  1407.90  0.114146  ( 0.332449 -0.035031 -0.048958)
 56:    776.20   0.087015  439.74  0.034983  (-0.168829 -0.080090 -0.008115)
 57:    816.89   0.111329  562.61  0.042529  ( 0.035521 -0.117316 -0.165846)
 58:    834.69   0.025715  129.95  0.009614  ( 0.051678 -0.052050 -0.065072)
 59:    844.31   0.024489  123.76  0.009051  ( 0.019961 -0.083088 -0.041825)
 60:    865.40   0.034491  174.31  0.012438  (-0.072281  0.084887  0.002684)
 61:    874.60   0.068540  346.37  0.024456  ( 0.067988  0.135099  0.039771)
 62:    909.21   0.002606   13.17  0.000894  (-0.011553 -0.006292 -0.026859)
 63:    926.92   0.034268  173.18  0.011537  (-0.020464  0.052338  0.091536)
 64:    934.55   0.020314  102.66  0.006783  (-0.050429  0.060919  0.023000)
 65:    951.10   0.014437   72.96  0.004737  ( 0.011119 -0.008965  0.067326)
 66:    970.73   0.107181  541.65  0.034456  (-0.004225  0.165420 -0.084109)
 67:    983.73   0.009499   48.00  0.003013  ( 0.054130 -0.002721  0.008710)
 68:   1026.56   0.031239  157.87  0.009496  ( 0.026715  0.011336 -0.093028)
 69:   1027.50   0.066746  337.31  0.020272  (-0.136951  0.006684 -0.038356)
 70:   1033.24   0.028556  144.31  0.008625  ( 0.082696  0.014525 -0.039688)
 71:   1169.85   0.027837  140.68  0.007426  ( 0.003455 -0.080508  0.030531)
 72:   1545.33   0.043308  218.86  0.008746  ( 0.012352  0.030218  0.087635)
 73:   1634.55   0.023215  117.32  0.004432  (-0.005699  0.029572 -0.059373)
 74:   1676.16   0.013082   66.11  0.002435  (-0.001713  0.047339 -0.013841)
 75:   1709.17   0.025497  128.85  0.004655  (-0.020596  0.026111  0.059575)
 76:   1728.98   0.022296  112.68  0.004024  (-0.054694  0.000997 -0.032121)
 77:   1738.13   0.030890  156.11  0.005546  ( 0.059266  0.008493 -0.044288)
 78:   1743.20   0.067961  343.44  0.012166  ( 0.088465  0.011935  0.064788)
 79:   1769.69   0.178122  900.16  0.031410  ( 0.034621  0.123295 -0.122513)
 80:   1798.72   0.299291  1512.49  0.051924  (-0.029997  0.139770  0.177451)
 81:   1805.41   0.182214  920.84  0.031496  ( 0.046478  0.000139  0.171275)
 82:   1808.94   0.257991  1303.78  0.044506  (-0.144557 -0.009227  0.153377)
 83:   1824.26   0.443448  2241.00  0.075857  (-0.267925  0.007754 -0.063353)
 84:   1833.53   0.049447  249.88  0.008416  ( 0.035350  0.005572  0.084469)
 85:   1864.92   0.131879  666.46  0.022068  (-0.042507  0.138266 -0.033816)
 86:   1876.03   0.070760  357.59  0.011770  (-0.106482 -0.009386 -0.018545)
 87:   1882.27   0.044799  226.39  0.007427  (-0.058132 -0.020839  0.060114)
 88:   1885.57   0.006584   33.27  0.001090  (-0.021495 -0.013647  0.021009)
 89:   1894.11   0.008530   43.11  0.001405  ( 0.030762  0.016248  0.013965)
 90:   1895.02   0.016816   84.98  0.002769  ( 0.020336 -0.014300 -0.046380)
 91:   1898.95   0.021224  107.26  0.003488  (-0.018585  0.002926 -0.055982)
 92:   1903.19   0.027542  139.19  0.004516  ( 0.029709  0.060269 -0.001000)
 93:   1916.50   0.036016  182.01  0.005864  ( 0.055237 -0.002213 -0.052995)
 94:   1919.91   0.018871   95.37  0.003067  ( 0.011659  0.053439 -0.008696)
 95:   1946.62   0.075913  383.64  0.012170  ( 0.011073  0.108205 -0.018407)

--------------------------
THERMOCHEMISTRY AT 298.15K
--------------------------

Temperature         ...   298.15 K
Pressure            ...     1.00 atm
Total Mass          ...   240.05 AMU
Quasi RRHO          ...     True
Cut-Off Frequency   ...     1.00 cm^-1

Throughout the following assumptions are being made:
  (1) The electronic state is orbitally nondegenerate
  (2) There are no thermally accessible electronically excited states
  (3) Hindered rotations indicated by low frequency modes are not
      treated as such but are treated as vibrations and this may
      cause some error
  (4) All equations used are the standard statistical mechanics
      equations for an ideal gas
  (5) All vibrations are strictly harmonic

freq.      39.93  E(vib)   ...       0.54
freq.      60.49  E(vib)   ...       0.51
freq.      89.14  E(vib)   ...       0.47
freq.     106.03  E(vib)   ...       0.45
freq.     114.84  E(vib)   ...       0.44
freq.     130.54  E(vib)   ...       0.43
freq.     138.80  E(vib)   ...       0.42
freq.     166.90  E(vib)   ...       0.39
freq.     177.25  E(vib)   ...       0.37
freq.     190.60  E(vib)   ...       0.36
freq.     197.33  E(vib)   ...       0.35
freq.     204.02  E(vib)   ...       0.35
freq.     210.35  E(vib)   ...       0.34
freq.     225.42  E(vib)   ...       0.33
freq.     234.37  E(vib)   ...       0.32
freq.     249.69  E(vib)   ...       0.31
freq.     260.13  E(vib)   ...       0.30
freq.     268.04  E(vib)   ...       0.29
freq.     279.76  E(vib)   ...       0.28
freq.     300.46  E(vib)   ...       0.26
freq.     304.55  E(vib)   ...       0.26
freq.     331.08  E(vib)   ...       0.24
freq.     335.37  E(vib)   ...       0.24
freq.     351.02  E(vib)   ...       0.23
freq.     357.33  E(vib)   ...       0.22
freq.     388.98  E(vib)   ...       0.20
freq.     390.36  E(vib)   ...       0.20
freq.     408.50  E(vib)   ...       0.19
freq.     432.02  E(vib)   ...       0.18
freq.     452.84  E(vib)   ...       0.16
freq.     469.60  E(vib)   ...       0.16
freq.     477.04  E(vib)   ...       0.15
freq.     495.72  E(vib)   ...       0.14
freq.     533.31  E(vib)   ...       0.13
freq.     540.65  E(vib)   ...       0.12
freq.     546.92  E(vib)   ...       0.12
freq.     569.96  E(vib)   ...       0.11
freq.     572.30  E(vib)   ...       0.11
freq.     582.49  E(vib)   ...       0.11
freq.     596.60  E(vib)   ...       0.10
freq.     603.08  E(vib)   ...       0.10
freq.     608.91  E(vib)   ...       0.10
freq.     630.56  E(vib)   ...       0.09
freq.     646.05  E(vib)   ...       0.09
freq.     676.12  E(vib)   ...       0.08
freq.     696.15  E(vib)   ...       0.07
freq.     708.93  E(vib)   ...       0.07
freq.     718.56  E(vib)   ...       0.07
freq.     739.11  E(vib)   ...       0.06
freq.     761.65  E(vib)   ...       0.06
freq.     776.20  E(vib)   ...       0.05
freq.     816.89  E(vib)   ...       0.05
freq.     834.69  E(vib)   ...       0.04
freq.     844.31  E(vib)   ...       0.04
freq.     865.40  E(vib)   ...       0.04
freq.     874.60  E(vib)   ...       0.04
freq.     909.21  E(vib)   ...       0.03
freq.     926.92  E(vib)   ...       0.03
freq.     934.55  E(vib)   ...       0.03
freq.     951.10  E(vib)   ...       0.03
freq.     970.73  E(vib)   ...       0.03
freq.     983.73  E(vib)   ...       0.02
freq.    1026.56  E(vib)   ...       0.02
freq.    1027.50  E(vib)   ...       0.02
freq.    1033.24  E(vib)   ...       0.02
freq.    1169.85  E(vib)   ...       0.01
freq.    1545.33  E(vib)   ...       0.00
freq.    1634.55  E(vib)   ...       0.00
freq.    1676.16  E(vib)   ...       0.00
freq.    1709.17  E(vib)   ...       0.00
freq.    1728.98  E(vib)   ...       0.00
freq.    1738.13  E(vib)   ...       0.00
freq.    1743.20  E(vib)   ...       0.00
freq.    1769.69  E(vib)   ...       0.00
freq.    1798.72  E(vib)   ...       0.00
freq.    1805.41  E(vib)   ...       0.00
freq.    1808.94  E(vib)   ...       0.00
freq.    1824.26  E(vib)   ...       0.00
freq.    1833.53  E(vib)   ...       0.00
freq.    1864.92  E(vib)   ...       0.00
freq.    1876.03  E(vib)   ...       0.00
freq.    1882.27  E(vib)   ...       0.00
freq.    1885.57  E(vib)   ...       0.00
freq.    1894.11  E(vib)   ...       0.00
freq.    1895.02  E(vib)   ...       0.00
freq.    1898.95  E(vib)   ...       0.00
freq.    1903.19  E(vib)   ...       0.00
freq.    1916.50  E(vib)   ...       0.00
freq.    1919.91  E(vib)   ...       0.00
freq.    1946.62  E(vib)   ...       0.00

------------
INNER ENERGY
------------

The inner energy is: U= E(el) + E(ZPE) + E(vib) + E(rot) + E(trans)
    E(el)   - is the total energy from the electronic structure calculation
              = E(kin-el) + E(nuc-el) + E(el-el) + E(nuc-nuc)
    E(ZPE)  - the the zero temperature vibrational energy from the frequency calculation
    E(vib)  - the the finite temperature correction to E(ZPE) due to population
              of excited vibrational states
    E(rot)  - is the rotational thermal energy
    E(trans)- is the translational thermal energy

Summary of contributions to the inner energy U:
Electronic energy                ...  -1952.75196444 Eh
Zero point energy                ...      0.17773011 Eh     111.53 kcal/mol
Thermal vibrational correction   ...      0.01939850 Eh      12.17 kcal/mol
Thermal rotational correction    ...      0.00141627 Eh       0.89 kcal/mol
Thermal translational correction ...      0.00141627 Eh       0.89 kcal/mol
-----------------------------------------------------------------------
Total thermal energy                  -1952.55200328 Eh

Summary of corrections to the electronic energy:
(perhaps to be used in another calculation)
Total thermal correction                  0.02223104 Eh      13.95 kcal/mol
Non-thermal (ZPE) correction              0.17773011 Eh     111.53 kcal/mol
-----------------------------------------------------------------------
Total correction                          0.19996116 Eh     125.48 kcal/mol

--------
ENTHALPY
--------

The enthalpy is H = U + kB*T
                kB is Boltzmann's constant
Total thermal energy              ...  -1952.55200328 Eh
Thermal Enthalpy correction       ...      0.00094421 Eh       0.59 kcal/mol
-----------------------------------------------------------------------
Total Enthalpy                    ...  -1952.55105907 Eh

Note: Only C1 symmetry has been detected, increase convergence thresholds
      if your molecule has a higher symmetry. Symmetry factor of 1.0 is
      used for the rotational entropy correction.

Note: Rotational entropy computed according to Herzberg
Infrared and Raman Spectra, Chapter V,1, Van Nostrand Reinhold, 1945
Point Group:  C1, Symmetry Number:   1
Rotational constants in cm-1:     0.016019     0.012842     0.009103

                             ****ORCA TERMINATED NORMALLY****
TOTAL RUN TIME: 0 days 0 hours 35 minutes 17 seconds 836 msec
