                         Program Version 6.1.0  -  RELEASE   -
|  1> # Geometry optimization for (AlH3)n cluster
|  2>
|  3> %pal nprocs 24  end
|  4>
|  5> %geom MaxIter 500 end
|  6>
|  7>
|  8> ! PBE def2-SV(P)
|  9> ! RKS	# closed shell for AlH3
| 10> ! D3    #  dispersion correction
| 11> ! gCP(DFT/SV(P))
| 12> ! Freq 	# Frequency analysis to check the stabiltity of the structures
| 13>
| 14> ! NoPop # population analysis not necessary
| 15>
| 16> ! RI
| 17> ! DEFGRID2
| 18> ! NormalSCF
| 19> ! SloppyOpt
| 20>
| 21> ! SmallPrint
| 22>
| 23>
| 24> * xyzFile 0 1 start.xyz # only maingroup elements H and Al so there should be no net spin
| 25>
| 26>                          ****END OF INPUT****
 Total Charge           Charge          ....    0
 Multiplicity           Mult            ....    1
 Number of Electrons    NEL             ....   32
Dispersion correction           -0.004658859
FINAL SINGLE POINT ENERGY      -487.886148469239
Dispersion correction             ... done (  0.1 sec)
Dispersion correction           -0.004647399
FINAL SINGLE POINT ENERGY      -487.895476432376
Dispersion correction             ... done (  0.1 sec)
Dispersion correction           -0.004602952
FINAL SINGLE POINT ENERGY      -487.919850065355
Dispersion correction             ... done (  0.1 sec)
FINAL SINGLE POINT ENERGY      -487.932904141746
FINAL SINGLE POINT ENERGY      -487.946854823062
FINAL SINGLE POINT ENERGY      -487.957064890362
Dispersion correction             ... done (  0.1 sec)
Dispersion correction           -0.004404579
FINAL SINGLE POINT ENERGY      -487.959064148529
Dispersion correction             ... done (  0.1 sec)
Dispersion correction           -0.004394466
FINAL SINGLE POINT ENERGY      -487.959220041823
Dispersion correction             ... done (  0.1 sec)
                    ***********************HURRAY********************

CARTESIAN COORDINATES (ANGSTROEM)
---------------------------------
  Al     0.000074   -0.002316    2.360890
  Al    -0.000375   -0.001895   -0.291657
  H      1.181322   -0.040681    1.034476
  H     -0.065510   -1.457940   -0.979473
  H     -1.180401    0.064907    1.034752
  H      0.064283    1.436064    3.084687
  H     -0.064583   -1.458682    3.047884
  H      0.063950    1.436854   -1.014748

 Multiplicity           Mult            ....    1
 Number of Electrons    NEL             ....   32
 Basis Dimension        Dim             ....   48

ORBITAL ENERGIES
----------------

  NO   OCC          E(Eh)            E(eV)
   0   2.0000     -55.388254     -1507.1910
   1   2.0000     -55.388190     -1507.1893
   2   2.0000      -3.946407      -107.3872
   3   2.0000      -3.946395      -107.3869
   4   2.0000      -2.555825       -69.5475
   5   2.0000      -2.555772       -69.5461
   6   2.0000      -2.552347       -69.4529
   7   2.0000      -2.551839       -69.4391
   8   2.0000      -2.547341       -69.3167
   9   2.0000      -2.547316       -69.3160
  10   2.0000      -0.463398       -12.6097
  11   2.0000      -0.349636        -9.5141
  12   2.0000      -0.316687        -8.6175
  13   2.0000      -0.294258        -8.0072
  14   2.0000      -0.283451        -7.7131
  15   2.0000      -0.270252        -7.3539
  16   0.0000      -0.070772        -1.9258
  17   0.0000      -0.020710        -0.5635
  18   0.0000      -0.013133        -0.3574
  19   0.0000      -0.008674        -0.2360
  20   0.0000       0.005779         0.1573

-------
TIMINGS
-------

Dispersion correction           -0.004394238
FINAL SINGLE POINT ENERGY      -487.959231736135

DIPOLE MOMENT
-------------

Method             : SCF
Type of density    : Electron Density
Multiplicity       :   1
Irrep              :   0
Energy             :  -487.9795249613781607 Eh
Basis              : AO
                                X                 Y                 Z
Electronic contribution:      0.000247838       0.013712918       0.000205891
Nuclear contribution   :     -0.000029865      -0.005981136      -0.000106375
                        -----------------------------------------
Total Dipole Moment    :      0.000217973       0.007731782       0.000099516
                        -----------------------------------------
Magnitude (a.u.)       :      0.007735494
Magnitude (Debye)      :      0.019662064

VIBRATIONAL FREQUENCIES
-----------------------

Scaling factor for frequencies =  1.000000000  (already applied!)

     0:       0.00 cm**-1
     1:       0.00 cm**-1
     2:       0.00 cm**-1
     3:       0.00 cm**-1
     4:       0.00 cm**-1
     5:       0.00 cm**-1
     6:     194.36 cm**-1
     7:     355.70 cm**-1
     8:     401.98 cm**-1
     9:     449.85 cm**-1
    10:     461.85 cm**-1
    11:     598.80 cm**-1
    12:     666.10 cm**-1
    13:     705.03 cm**-1
    14:     709.33 cm**-1
    15:     788.65 cm**-1
    16:    1268.07 cm**-1
    17:    1341.47 cm**-1
    18:    1404.26 cm**-1
    19:    1474.53 cm**-1
    20:    1879.18 cm**-1
    21:    1884.09 cm**-1
    22:    1898.15 cm**-1
    23:    1905.65 cm**-1

IR SPECTRUM
-----------

 Mode   freq       eps      Int      T**2         TX        TY        TZ
       cm**-1   L/(mol*cm) km/mol    a.u.
----------------------------------------------------------------------------
  6:    194.36   0.001928    9.74  0.003095  ( 0.002531  0.055574  0.000051)
  7:    355.70   0.000002    0.01  0.000002  (-0.000059 -0.001291 -0.000002)
  8:    401.98   0.000000    0.00  0.000000  (-0.000015 -0.000002 -0.000081)
  9:    449.85   0.000001    0.00  0.000001  ( 0.000015 -0.000008  0.000804)
 10:    461.85   0.000000    0.00  0.000000  (-0.000054 -0.000010  0.000049)
 11:    598.80   0.041246  208.44  0.021495  ( 0.146461 -0.006669 -0.000020)
 12:    666.10   0.110192  556.86  0.051624  (-0.000031  0.000065 -0.227209)
 13:    705.03   0.000018    0.09  0.000008  ( 0.000029 -0.002820 -0.000167)
 14:    709.33   0.000065    0.33  0.000029  ( 0.005337 -0.000407 -0.000129)
 15:    788.65   0.039905  201.66  0.015790  ( 0.005517  0.125537  0.000046)
 16:   1268.07   0.062074  313.70  0.015276  (-0.123473  0.005505 -0.000230)
 17:   1341.47   0.000000    0.00  0.000000  (-0.000015  0.000009  0.000230)
 18:   1404.26   0.196033  990.67  0.043564  (-0.000092 -0.000035  0.208720)
 19:   1474.53   0.000003    0.02  0.000001  ( 0.000026  0.000806  0.000023)
 20:   1879.18   0.024397  123.29  0.004051  (-0.000020 -0.000245 -0.063650)
 21:   1884.09   0.000017    0.09  0.000003  ( 0.000053  0.001182 -0.001212)
 22:   1898.15   0.000040    0.20  0.000007  ( 0.000068  0.001362 -0.002168)
 23:   1905.65   0.071302  360.33  0.011676  ( 0.004813  0.107950 -0.000089)

--------------------------
THERMOCHEMISTRY AT 298.15K
--------------------------

Temperature         ...   298.15 K
Pressure            ...     1.00 atm
Total Mass          ...    60.01 AMU
Quasi RRHO          ...     True
Cut-Off Frequency   ...     1.00 cm^-1

Throughout the following assumptions are being made:
  (1) The electronic state is orbitally nondegenerate
  (2) There are no thermally accessible electronically excited states
  (3) Hindered rotations indicated by low frequency modes are not
      treated as such but are treated as vibrations and this may
      cause some error
  (4) All equations used are the standard statistical mechanics
      equations for an ideal gas
  (5) All vibrations are strictly harmonic

freq.     194.36  E(vib)   ...       0.36
freq.     355.70  E(vib)   ...       0.22
freq.     401.98  E(vib)   ...       0.19
freq.     449.85  E(vib)   ...       0.17
freq.     461.85  E(vib)   ...       0.16
freq.     598.80  E(vib)   ...       0.10
freq.     666.10  E(vib)   ...       0.08
freq.     705.03  E(vib)   ...       0.07
freq.     709.33  E(vib)   ...       0.07
freq.     788.65  E(vib)   ...       0.05
freq.    1268.07  E(vib)   ...       0.01
freq.    1341.47  E(vib)   ...       0.01
freq.    1404.26  E(vib)   ...       0.00
freq.    1474.53  E(vib)   ...       0.00
freq.    1879.18  E(vib)   ...       0.00
freq.    1884.09  E(vib)   ...       0.00
freq.    1898.15  E(vib)   ...       0.00
freq.    1905.65  E(vib)   ...       0.00

------------
INNER ENERGY
------------

The inner energy is: U= E(el) + E(ZPE) + E(vib) + E(rot) + E(trans)
    E(el)   - is the total energy from the electronic structure calculation
              = E(kin-el) + E(nuc-el) + E(el-el) + E(nuc-nuc)
    E(ZPE)  - the the zero temperature vibrational energy from the frequency calculation
    E(vib)  - the the finite temperature correction to E(ZPE) due to population
              of excited vibrational states
    E(rot)  - is the rotational thermal energy
    E(trans)- is the translational thermal energy

Summary of contributions to the inner energy U:
Electronic energy                ...   -487.95923174 Eh
Zero point energy                ...      0.04188877 Eh      26.29 kcal/mol
Thermal vibrational correction   ...      0.00237780 Eh       1.49 kcal/mol
Thermal rotational correction    ...      0.00141627 Eh       0.89 kcal/mol
Thermal translational correction ...      0.00141627 Eh       0.89 kcal/mol
-----------------------------------------------------------------------
Total thermal energy                   -487.91213263 Eh

Summary of corrections to the electronic energy:
(perhaps to be used in another calculation)
Total thermal correction                  0.00521034 Eh       3.27 kcal/mol
Non-thermal (ZPE) correction              0.04188877 Eh      26.29 kcal/mol
-----------------------------------------------------------------------
Total correction                          0.04709911 Eh      29.56 kcal/mol

--------
ENTHALPY
--------

The enthalpy is H = U + kB*T
                kB is Boltzmann's constant
Total thermal energy              ...   -487.91213263 Eh
Thermal Enthalpy correction       ...      0.00094421 Eh       0.59 kcal/mol
-----------------------------------------------------------------------
Total Enthalpy                    ...   -487.91118842 Eh

Note: Only C1 symmetry has been detected, increase convergence thresholds
      if your molecule has a higher symmetry. Symmetry factor of 1.0 is
      used for the rotational entropy correction.

Note: Rotational entropy computed according to Herzberg
Infrared and Raman Spectra, Chapter V,1, Van Nostrand Reinhold, 1945
Point Group:  C1, Symmetry Number:   1
Rotational constants in cm-1:     1.494331     0.147377     0.140443

Vibrational entropy computed according to the QRRHO of S. Grimme
Chem.Eur.J. 2012 18 9955 using a reference frequency of 100.0 cm-1

-------
ENTROPY
-------

The entropy contributions are T*S = T*(S(el)+S(vib)+S(rot)+S(trans))
     S(el)   - electronic entropy
     S(vib)  - vibrational entropy
     S(rot)  - rotational entropy
     S(trans)- translational entropy
The entropies will be listed as multiplied by the temperature to get
units of energy

Electronic entropy                ...      0.00000000 Eh      0.00 kcal/mol
Vibrational entropy               ...      0.00358970 Eh      2.25 kcal/mol
Rotational entropy                ...      0.01115181 Eh      7.00 kcal/mol
Translational entropy             ...      0.01814806 Eh     11.39 kcal/mol
-----------------------------------------------------------------------
Final entropy term                ...      0.03288957 Eh     20.64 kcal/mol

In case the symmetry of your molecule has not been determined correctly
or in case you have a reason to use a different symmetry number we print
out the resulting rotational entropy values for sn=1,12:

 non-linear molecules -----------------------------------
|  sn= 1 | S(rot)=       0.01115181 Eh      7.00 kcal/mol|
|  sn= 2 | S(rot)=       0.01049735 Eh      6.59 kcal/mol|
|  sn= 3 | S(rot)=       0.01011452 Eh      6.35 kcal/mol|
|  sn= 4 | S(rot)=       0.00984290 Eh      6.18 kcal/mol|
|  sn= 5 | S(rot)=       0.00963221 Eh      6.04 kcal/mol|
|  sn= 6 | S(rot)=       0.00946007 Eh      5.94 kcal/mol|
|  sn= 7 | S(rot)=       0.00931452 Eh      5.84 kcal/mol|
|  sn= 8 | S(rot)=       0.00918844 Eh      5.77 kcal/mol|
|  sn= 9 | S(rot)=       0.00907723 Eh      5.70 kcal/mol|
|  sn=10 | S(rot)=       0.00897775 Eh      5.63 kcal/mol|
|  sn=11 | S(rot)=       0.00888776 Eh      5.58 kcal/mol|
|  sn=12 | S(rot)=       0.00880561 Eh      5.53 kcal/mol|
 linear molecules ---------------------------------------
|  Dinfh | S(rot)=       0.00717919 Eh      4.50 kcal/mol|
|  Cinfv | S(rot)=       0.00783364 Eh      4.92 kcal/mol|
 --------------------------------------------------------

-------------------
GIBBS FREE ENERGY
-------------------

The Gibbs free energy is G = H - T*S

Total enthalpy                    ...   -487.91118842 Eh
Total entropy correction          ...     -0.03288957 Eh    -20.64 kcal/mol
-----------------------------------------------------------------------
Final Gibbs free energy         ...   -487.94407799 Eh

For completeness - the Gibbs free energy minus the electronic energy
G-E(el)                           ...      0.01515374 Eh      9.51 kcal/mol

                             ****ORCA TERMINATED NORMALLY****
TOTAL RUN TIME: 0 days 0 hours 1 minutes 4 seconds 104 msec
