                         Program Version 6.1.0  -  RELEASE   -
|  1> # Geometry optimization for (AlH3)n cluster
|  2>
|  3> %pal nprocs 24  end
|  4>
|  5> %geom MaxIter 500 end
|  6>
|  7>
|  8> ! PBE pc-1
|  9> ! RKS	# closed shell for AlH3
| 10> ! D3    #  dispersion correction
| 11> ! Freq 	# Frequency analysis to check the stabiltity of the structures
| 12>
| 13> ! NoPop # population analysis not necessary
| 14>
| 15> ! DEFGRID3
| 16> ! TightSCF
| 17> ! TightOpt
| 18>
| 19> ! SmallPrint
| 20>
| 21>
| 22> * xyzFile 0 1 start.xyz # only maingroup elements H and Al so there should be no net spin
| 23>
| 24>                          ****END OF INPUT****
 Total Charge           Charge          ....    0
 Multiplicity           Mult            ....    1
 Number of Electrons    NEL             ....   32
Dispersion correction           -0.004658859
FINAL SINGLE POINT ENERGY      -488.081457782675
Dispersion correction             ... done (  0.1 sec)
Dispersion correction           -0.004655987
FINAL SINGLE POINT ENERGY      -488.090672395306
Dispersion correction             ... done (  0.1 sec)
Dispersion correction           -0.004629604
FINAL SINGLE POINT ENERGY      -488.114148773121
Dispersion correction             ... done (  0.1 sec)
FINAL SINGLE POINT ENERGY      -488.126993423207
FINAL SINGLE POINT ENERGY      -488.140699104345
FINAL SINGLE POINT ENERGY      -488.150360818648
FINAL SINGLE POINT ENERGY      -488.152043338451
FINAL SINGLE POINT ENERGY      -488.152165677794
FINAL SINGLE POINT ENERGY      -488.152186839074
FINAL SINGLE POINT ENERGY      -488.152213989746
FINAL SINGLE POINT ENERGY      -488.152221950504
FINAL SINGLE POINT ENERGY      -488.152224488144
FINAL SINGLE POINT ENERGY      -488.152225827356
Dispersion correction             ... done (  0.1 sec)
Dispersion correction           -0.004444407
FINAL SINGLE POINT ENERGY      -488.152227097211
Dispersion correction             ... done (  0.1 sec)
Dispersion correction           -0.004445008
FINAL SINGLE POINT ENERGY      -488.152227667074
Dispersion correction             ... done (  0.1 sec)
                    ***********************HURRAY********************

CARTESIAN COORDINATES (ANGSTROEM)
---------------------------------
  Al     0.000069   -0.002505    2.344866
  Al    -0.000313   -0.001970   -0.275659
  H      1.162052   -0.046386    1.034427
  H     -0.064546   -1.439280   -0.952188
  H     -1.161612    0.057218    1.034783
  H      0.063958    1.424238    3.043253
  H     -0.064074   -1.440086    3.020785
  H      0.063226    1.425080   -0.973457

 Multiplicity           Mult            ....    1
 Number of Electrons    NEL             ....   32
 Basis Dimension        Dim             ....   66

ORBITAL ENERGIES
----------------

  NO   OCC          E(Eh)            E(eV)
   0   2.0000     -55.366792     -1506.6070
   1   2.0000     -55.366790     -1506.6069
   2   2.0000      -3.939054      -107.1871
   3   2.0000      -3.939021      -107.1862
   4   2.0000      -2.544872       -69.2495
   5   2.0000      -2.544803       -69.2476
   6   2.0000      -2.541621       -69.1610
   7   2.0000      -2.540974       -69.1434
   8   2.0000      -2.536452       -69.0204
   9   2.0000      -2.536401       -69.0190
  10   2.0000      -0.467625       -12.7247
  11   2.0000      -0.351307        -9.5595
  12   2.0000      -0.317322        -8.6348
  13   2.0000      -0.293988        -7.9998
  14   2.0000      -0.284455        -7.7404
  15   2.0000      -0.270122        -7.3504
  16   0.0000      -0.070837        -1.9276
  17   0.0000      -0.023239        -0.6324
  18   0.0000      -0.014216        -0.3868
  19   0.0000      -0.002424        -0.0660
  20   0.0000      -0.000617        -0.0168

-------
TIMINGS
-------

Dispersion correction           -0.004444951
FINAL SINGLE POINT ENERGY      -488.152227930739

DIPOLE MOMENT
-------------

Method             : SCF
Type of density    : Electron Density
Multiplicity       :   1
Irrep              :   0
Energy             :  -488.1477829799493406 Eh
Basis              : AO
                                X                 Y                 Z
Electronic contribution:      0.000473224       0.010406863       0.000027945
Nuclear contribution   :     -0.000231775      -0.005062370      -0.000014218
                        -----------------------------------------
Total Dipole Moment    :      0.000241449       0.005344493       0.000013727
                        -----------------------------------------
Magnitude (a.u.)       :      0.005349961
Magnitude (Debye)      :      0.013598521

VIBRATIONAL FREQUENCIES
-----------------------

Scaling factor for frequencies =  1.000000000  (already applied!)

     0:       0.00 cm**-1
     1:       0.00 cm**-1
     2:       0.00 cm**-1
     3:       0.00 cm**-1
     4:       0.00 cm**-1
     5:       0.00 cm**-1
     6:     206.61 cm**-1
     7:     368.11 cm**-1
     8:     410.77 cm**-1
     9:     459.95 cm**-1
    10:     465.82 cm**-1
    11:     602.81 cm**-1
    12:     679.00 cm**-1
    13:     717.40 cm**-1
    14:     726.04 cm**-1
    15:     807.57 cm**-1
    16:    1294.47 cm**-1
    17:    1379.74 cm**-1
    18:    1444.30 cm**-1
    19:    1506.31 cm**-1
    20:    1913.70 cm**-1
    21:    1918.65 cm**-1
    22:    1931.19 cm**-1
    23:    1939.11 cm**-1

IR SPECTRUM
-----------

 Mode   freq       eps      Int      T**2         TX        TY        TZ
       cm**-1   L/(mol*cm) km/mol    a.u.
----------------------------------------------------------------------------
  6:    206.61   0.001952    9.86  0.002948  (-0.002422 -0.054241 -0.000019)
  7:    368.11   0.000001    0.00  0.000001  ( 0.000034  0.000757  0.000000)
  8:    410.77   0.000000    0.00  0.000000  (-0.000006 -0.000001 -0.000049)
  9:    459.95   0.000000    0.00  0.000000  (-0.000007 -0.000001  0.000365)
 10:    465.82   0.000000    0.00  0.000000  (-0.000012  0.000006  0.000009)
 11:    602.81   0.044666  225.72  0.023123  ( 0.151912 -0.006761 -0.000027)
 12:    679.00   0.112310  567.57  0.051617  ( 0.000034 -0.000048  0.227193)
 13:    717.40   0.000008    0.04  0.000004  (-0.000075 -0.001897 -0.000035)
 14:    726.04   0.000022    0.11  0.000010  ( 0.003101 -0.000128  0.000052)
 15:    807.57   0.041797  211.23  0.016151  (-0.005684 -0.126961 -0.000026)
 16:   1294.47   0.068661  346.99  0.016552  ( 0.128528 -0.005736 -0.000015)
 17:   1379.74   0.000000    0.00  0.000000  (-0.000000  0.000004  0.000011)
 18:   1444.30   0.198158  1001.41  0.042815  ( 0.000027 -0.000043  0.206918)
 19:   1506.31   0.000001    0.01  0.000000  (-0.000024 -0.000507  0.000001)
 20:   1913.70   0.026276  132.79  0.004285  (-0.000013 -0.000053 -0.065458)
 21:   1918.65   0.000005    0.02  0.000001  ( 0.000038  0.000848 -0.000261)
 22:   1931.19   0.000013    0.06  0.000002  ( 0.000009  0.000282 -0.001406)
 23:   1939.11   0.078364  396.02  0.012611  ( 0.005009  0.112188 -0.000011)

--------------------------
THERMOCHEMISTRY AT 298.15K
--------------------------

Temperature         ...   298.15 K
Pressure            ...     1.00 atm
Total Mass          ...    60.01 AMU
Quasi RRHO          ...     True
Cut-Off Frequency   ...     1.00 cm^-1

Throughout the following assumptions are being made:
  (1) The electronic state is orbitally nondegenerate
  (2) There are no thermally accessible electronically excited states
  (3) Hindered rotations indicated by low frequency modes are not
      treated as such but are treated as vibrations and this may
      cause some error
  (4) All equations used are the standard statistical mechanics
      equations for an ideal gas
  (5) All vibrations are strictly harmonic

freq.     206.61  E(vib)   ...       0.35
freq.     368.11  E(vib)   ...       0.21
freq.     410.77  E(vib)   ...       0.19
freq.     459.95  E(vib)   ...       0.16
freq.     465.82  E(vib)   ...       0.16
freq.     602.81  E(vib)   ...       0.10
freq.     679.00  E(vib)   ...       0.08
freq.     717.40  E(vib)   ...       0.07
freq.     726.04  E(vib)   ...       0.06
freq.     807.57  E(vib)   ...       0.05
freq.    1294.47  E(vib)   ...       0.01
freq.    1379.74  E(vib)   ...       0.01
freq.    1444.30  E(vib)   ...       0.00
freq.    1506.31  E(vib)   ...       0.00
freq.    1913.70  E(vib)   ...       0.00
freq.    1918.65  E(vib)   ...       0.00
freq.    1931.19  E(vib)   ...       0.00
freq.    1939.11  E(vib)   ...       0.00

------------
INNER ENERGY
------------

The inner energy is: U= E(el) + E(ZPE) + E(vib) + E(rot) + E(trans)
    E(el)   - is the total energy from the electronic structure calculation
              = E(kin-el) + E(nuc-el) + E(el-el) + E(nuc-nuc)
    E(ZPE)  - the the zero temperature vibrational energy from the frequency calculation
    E(vib)  - the the finite temperature correction to E(ZPE) due to population
              of excited vibrational states
    E(rot)  - is the rotational thermal energy
    E(trans)- is the translational thermal energy

Summary of contributions to the inner energy U:
Electronic energy                ...   -488.15222793 Eh
Zero point energy                ...      0.04276477 Eh      26.84 kcal/mol
Thermal vibrational correction   ...      0.00229569 Eh       1.44 kcal/mol
Thermal rotational correction    ...      0.00141627 Eh       0.89 kcal/mol
Thermal translational correction ...      0.00141627 Eh       0.89 kcal/mol
-----------------------------------------------------------------------
Total thermal energy                   -488.10433493 Eh

Summary of corrections to the electronic energy:
(perhaps to be used in another calculation)
Total thermal correction                  0.00512823 Eh       3.22 kcal/mol
Non-thermal (ZPE) correction              0.04276477 Eh      26.84 kcal/mol
-----------------------------------------------------------------------
Total correction                          0.04789300 Eh      30.05 kcal/mol

--------
ENTHALPY
--------

The enthalpy is H = U + kB*T
                kB is Boltzmann's constant
Total thermal energy              ...   -488.10433493 Eh
Thermal Enthalpy correction       ...      0.00094421 Eh       0.59 kcal/mol
-----------------------------------------------------------------------
Total Enthalpy                    ...   -488.10339072 Eh

Note: Only C1 symmetry has been detected, increase convergence thresholds
      if your molecule has a higher symmetry. Symmetry factor of 1.0 is
      used for the rotational entropy correction.

Note: Rotational entropy computed according to Herzberg
Infrared and Raman Spectra, Chapter V,1, Van Nostrand Reinhold, 1945
Point Group:  C1, Symmetry Number:   1
Rotational constants in cm-1:     1.530631     0.151246     0.144060

Vibrational entropy computed according to the QRRHO of S. Grimme
Chem.Eur.J. 2012 18 9955 using a reference frequency of 100.0 cm-1

-------
ENTROPY
-------

The entropy contributions are T*S = T*(S(el)+S(vib)+S(rot)+S(trans))
     S(el)   - electronic entropy
     S(vib)  - vibrational entropy
     S(rot)  - rotational entropy
     S(trans)- translational entropy
The entropies will be listed as multiplied by the temperature to get
units of energy

Electronic entropy                ...      0.00000000 Eh      0.00 kcal/mol
Vibrational entropy               ...      0.00343732 Eh      2.16 kcal/mol
Rotational entropy                ...      0.01111625 Eh      6.98 kcal/mol
Translational entropy             ...      0.01814806 Eh     11.39 kcal/mol
-----------------------------------------------------------------------
Final entropy term                ...      0.03270163 Eh     20.52 kcal/mol

In case the symmetry of your molecule has not been determined correctly
or in case you have a reason to use a different symmetry number we print
out the resulting rotational entropy values for sn=1,12:

 non-linear molecules -----------------------------------
|  sn= 1 | S(rot)=       0.01111625 Eh      6.98 kcal/mol|
|  sn= 2 | S(rot)=       0.01046179 Eh      6.56 kcal/mol|
|  sn= 3 | S(rot)=       0.01007896 Eh      6.32 kcal/mol|
|  sn= 4 | S(rot)=       0.00980733 Eh      6.15 kcal/mol|
|  sn= 5 | S(rot)=       0.00959664 Eh      6.02 kcal/mol|
|  sn= 6 | S(rot)=       0.00942450 Eh      5.91 kcal/mol|
|  sn= 7 | S(rot)=       0.00927895 Eh      5.82 kcal/mol|
|  sn= 8 | S(rot)=       0.00915288 Eh      5.74 kcal/mol|
|  sn= 9 | S(rot)=       0.00904167 Eh      5.67 kcal/mol|
|  sn=10 | S(rot)=       0.00894219 Eh      5.61 kcal/mol|
|  sn=11 | S(rot)=       0.00885220 Eh      5.55 kcal/mol|
|  sn=12 | S(rot)=       0.00877004 Eh      5.50 kcal/mol|
 linear molecules ---------------------------------------
|  Dinfh | S(rot)=       0.00715518 Eh      4.49 kcal/mol|
|  Cinfv | S(rot)=       0.00780964 Eh      4.90 kcal/mol|
 --------------------------------------------------------

-------------------
GIBBS FREE ENERGY
-------------------

The Gibbs free energy is G = H - T*S

Total enthalpy                    ...   -488.10339072 Eh
Total entropy correction          ...     -0.03270163 Eh    -20.52 kcal/mol
-----------------------------------------------------------------------
Final Gibbs free energy         ...   -488.13609235 Eh

For completeness - the Gibbs free energy minus the electronic energy
G-E(el)                           ...      0.01613558 Eh     10.13 kcal/mol

                             ****ORCA TERMINATED NORMALLY****
TOTAL RUN TIME: 0 days 0 hours 2 minutes 27 seconds 441 msec
