                         Program Version 6.1.0  -  RELEASE   -
|  1> # Geometry optimization for (AlH3)n cluster
|  2>
|  3> %pal nprocs 24  end
|  4>
|  5> %geom MaxIter 500 end
|  6>
|  7>
|  8> ! PBE def2-SV(P)
|  9> ! RKS	# closed shell for AlH3
| 10> ! D3    #  dispersion correction
| 11> ! gCP(DFT/SV(P))
| 12> ! Freq 	# Frequency analysis to check the stabiltity of the structures
| 13>
| 14> ! NoPop # population analysis not necessary
| 15>
| 16> ! RI
| 17> ! DEFGRID2
| 18> ! NormalSCF
| 19> ! SloppyOpt
| 20>
| 21> ! SmallPrint
| 22>
| 23>
| 24> * xyzFile 0 1 start.xyz # only maingroup elements H and Al so there should be no net spin
| 25>
| 26>                          ****END OF INPUT****
 Total Charge           Charge          ....    0
 Multiplicity           Mult            ....    1
 Number of Electrons    NEL             ....  112
Dispersion correction           -0.042563764
FINAL SINGLE POINT ENERGY     -1707.177486363854
Dispersion correction             ... done (  0.1 sec)
Dispersion correction           -0.041253132
FINAL SINGLE POINT ENERGY     -1707.221092562261
Dispersion correction             ... done (  0.1 sec)
Dispersion correction           -0.040330052
FINAL SINGLE POINT ENERGY     -1707.264543383677
Dispersion correction             ... done (  0.1 sec)
FINAL SINGLE POINT ENERGY     -1707.328497290401
FINAL SINGLE POINT ENERGY     -1707.416905344045
FINAL SINGLE POINT ENERGY     -1707.499746948915
FINAL SINGLE POINT ENERGY     -1707.572958493522
FINAL SINGLE POINT ENERGY     -1707.696691303384
FINAL SINGLE POINT ENERGY     -1707.723830352520
FINAL SINGLE POINT ENERGY     -1707.740754460893
FINAL SINGLE POINT ENERGY     -1707.884468206590
FINAL SINGLE POINT ENERGY     -1707.888084455917
FINAL SINGLE POINT ENERGY     -1707.891381703797
FINAL SINGLE POINT ENERGY     -1707.894037189213
FINAL SINGLE POINT ENERGY     -1707.895704557717
FINAL SINGLE POINT ENERGY     -1707.896582528804
FINAL SINGLE POINT ENERGY     -1707.897158098103
Dispersion correction             ... done (  0.1 sec)
Dispersion correction           -0.031867097
FINAL SINGLE POINT ENERGY     -1707.897722095106
Dispersion correction             ... done (  0.1 sec)
Dispersion correction           -0.031806434
FINAL SINGLE POINT ENERGY     -1707.898212663677
Dispersion correction             ... done (  0.1 sec)
                    ***********************HURRAY********************

CARTESIAN COORDINATES (ANGSTROEM)
---------------------------------
  Al     1.453637   -4.195884    0.567946
  Al     1.736607   -4.123839    3.914940
  Al     0.951002   -0.887738    1.042099
  Al    -0.674891   -2.113807    3.487554
  Al    -1.139852    0.651679    2.004132
  Al    -0.954179    0.551549    5.271546
  Al    -2.509404   -1.948431    6.011518
  H      0.313694   -5.083714   -0.146881
  H      3.053145   -4.235109    0.331578
  H      1.541816   -5.482671    4.764832
  H      3.028473   -3.152799    3.858500
  H      1.221996   -4.430327    2.289019
  H      1.006444   -2.532035    0.394358
  H      2.223685   -0.120176    0.440893
  H     -0.641065   -0.516408    0.582255
  H     -1.335442    1.455499    3.937152
  H     -1.733231   -0.679112    2.846517
  H      0.486330    0.853802    2.221201
  H     -2.144512    1.680082    1.290081
  H     -2.451981   -0.195328    5.679288
  H     -4.062771   -2.206822    6.372107
  H     -1.232932   -2.252049    6.943435
  H     -2.177130   -2.503847    4.423567
  H      0.374070   -3.176084    4.404589
  H      0.812974   -1.512262    2.599623
  H     -1.179437   -3.076279    2.277933
  H     -0.156057   -0.846349    4.693122
  H     -0.155629    1.166200    6.524824

 Multiplicity           Mult            ....    1
 Number of Electrons    NEL             ....  112
 Basis Dimension        Dim             ....  168

ORBITAL ENERGIES
----------------

  NO   OCC          E(Eh)            E(eV)
   0   2.0000     -55.428745     -1508.2928
   1   2.0000     -55.417745     -1507.9935
   2   2.0000     -55.415916     -1507.9437
   3   2.0000     -55.407923     -1507.7262
   4   2.0000     -55.395172     -1507.3793
   5   2.0000     -55.391385     -1507.2762
   6   2.0000     -55.391269     -1507.2731
   7   2.0000      -3.975809      -108.1873
   8   2.0000      -3.972102      -108.0864
   9   2.0000      -3.968174      -107.9795
  10   2.0000      -3.961939      -107.8098
  11   2.0000      -3.951977      -107.5388
  12   2.0000      -3.946197      -107.3815
  13   2.0000      -3.945648      -107.3665
  14   2.0000      -2.583155       -70.2912
  15   2.0000      -2.582695       -70.2787
  16   2.0000      -2.580167       -70.2099
  17   2.0000      -2.578401       -70.1619
  18   2.0000      -2.578256       -70.1579
  19   2.0000      -2.576037       -70.0975
  20   2.0000      -2.574865       -70.0656
  21   2.0000      -2.574301       -70.0503
  22   2.0000      -2.570958       -69.9593
  23   2.0000      -2.570301       -69.9414
  24   2.0000      -2.567413       -69.8629
  25   2.0000      -2.563940       -69.7684
  26   2.0000      -2.560902       -69.6857
  27   2.0000      -2.558042       -69.6079
  28   2.0000      -2.554846       -69.5209
  29   2.0000      -2.554209       -69.5035
  30   2.0000      -2.553066       -69.4725
  31   2.0000      -2.552831       -69.4661
  32   2.0000      -2.552560       -69.4587
  33   2.0000      -2.547199       -69.3128
  34   2.0000      -2.546477       -69.2932
  35   2.0000      -0.516387       -14.0516
  36   2.0000      -0.470419       -12.8008
  37   2.0000      -0.450738       -12.2652
  38   2.0000      -0.416979       -11.3466
  39   2.0000      -0.407153       -11.0792
  40   2.0000      -0.387788       -10.5522
  41   2.0000      -0.379536       -10.3277
  42   2.0000      -0.341173        -9.2838
  43   2.0000      -0.336174        -9.1478
  44   2.0000      -0.330813        -9.0019
  45   2.0000      -0.318043        -8.6544
  46   2.0000      -0.316059        -8.6004
  47   2.0000      -0.307065        -8.3557
  48   2.0000      -0.295876        -8.0512
  49   2.0000      -0.290339        -7.9005
  50   2.0000      -0.287019        -7.8102
  51   2.0000      -0.279501        -7.6056
  52   2.0000      -0.275326        -7.4920
  53   2.0000      -0.269646        -7.3374
  54   2.0000      -0.266021        -7.2388
  55   2.0000      -0.253057        -6.8860
  56   0.0000      -0.093897        -2.5551
  57   0.0000      -0.076245        -2.0747
  58   0.0000      -0.067896        -1.8476
  59   0.0000      -0.059852        -1.6286
  60   0.0000      -0.050618        -1.3774

-------
TIMINGS
-------

Dispersion correction           -0.031773266
FINAL SINGLE POINT ENERGY     -1707.898617297035

DIPOLE MOMENT
-------------

Method             : SCF
Type of density    : Electron Density
Multiplicity       :   1
Irrep              :   0
Energy             : -1707.9638984693183374 Eh
Basis              : AO
                                X                 Y                 Z
Electronic contribution:     -0.579448597       1.317460039       0.330281713
Nuclear contribution   :      0.178018315      -0.564936734      -0.149640336
                        -----------------------------------------
Total Dipole Moment    :     -0.401430282       0.752523305       0.180641377
                        -----------------------------------------
Magnitude (a.u.)       :      0.871819307
Magnitude (Debye)      :      2.215988570

VIBRATIONAL FREQUENCIES
-----------------------

Scaling factor for frequencies =  1.000000000  (already applied!)

     0:       0.00 cm**-1
     1:       0.00 cm**-1
     2:       0.00 cm**-1
     3:       0.00 cm**-1
     4:       0.00 cm**-1
     5:       0.00 cm**-1
     6:      21.32 cm**-1
     7:      34.68 cm**-1
     8:      63.74 cm**-1
     9:      68.35 cm**-1
    10:      85.11 cm**-1
    11:     101.81 cm**-1
    12:     113.92 cm**-1
    13:     134.69 cm**-1
    14:     152.52 cm**-1
    15:     163.10 cm**-1
    16:     173.47 cm**-1
    17:     199.40 cm**-1
    18:     230.31 cm**-1
    19:     250.34 cm**-1
    20:     263.35 cm**-1
    21:     283.68 cm**-1
    22:     295.78 cm**-1
    23:     302.36 cm**-1
    24:     328.17 cm**-1
    25:     348.50 cm**-1
    26:     354.49 cm**-1
    27:     375.52 cm**-1
    28:     388.46 cm**-1
    29:     417.71 cm**-1
    30:     432.61 cm**-1
    31:     452.00 cm**-1
    32:     476.22 cm**-1
    33:     486.70 cm**-1
    34:     491.86 cm**-1
    35:     518.39 cm**-1
    36:     540.23 cm**-1
    37:     556.18 cm**-1
    38:     595.37 cm**-1
    39:     637.78 cm**-1
    40:     656.22 cm**-1
    41:     666.13 cm**-1
    42:     682.09 cm**-1
    43:     685.05 cm**-1
    44:     699.83 cm**-1
    45:     717.80 cm**-1
    46:     730.75 cm**-1
    47:     737.17 cm**-1
    48:     740.03 cm**-1
    49:     753.94 cm**-1
    50:     777.97 cm**-1
    51:     801.36 cm**-1
    52:     844.84 cm**-1
    53:     860.52 cm**-1
    54:     903.68 cm**-1
    55:     907.67 cm**-1
    56:     957.42 cm**-1
    57:     978.16 cm**-1
    58:    1014.33 cm**-1
    59:    1032.14 cm**-1
    60:    1058.78 cm**-1
    61:    1127.86 cm**-1
    62:    1142.68 cm**-1
    63:    1552.60 cm**-1
    64:    1589.00 cm**-1
    65:    1612.43 cm**-1
    66:    1659.49 cm**-1
    67:    1684.17 cm**-1
    68:    1692.24 cm**-1
    69:    1713.17 cm**-1
    70:    1747.50 cm**-1
    71:    1779.08 cm**-1
    72:    1804.63 cm**-1
    73:    1823.56 cm**-1
    74:    1856.45 cm**-1
    75:    1870.04 cm**-1
    76:    1873.89 cm**-1
    77:    1879.41 cm**-1
    78:    1888.61 cm**-1
    79:    1896.38 cm**-1
    80:    1900.78 cm**-1
    81:    1904.51 cm**-1
    82:    1911.46 cm**-1
    83:    1919.32 cm**-1

IR SPECTRUM
-----------

 Mode   freq       eps      Int      T**2         TX        TY        TZ
       cm**-1   L/(mol*cm) km/mol    a.u.
----------------------------------------------------------------------------
  6:     21.32   0.000023    0.12  0.000333  (-0.017039  0.000486 -0.006539)
  7:     34.68   0.000015    0.08  0.000135  ( 0.003814  0.009951 -0.004591)
  8:     63.74   0.000057    0.29  0.000279  ( 0.013812 -0.000720  0.009378)
  9:     68.35   0.000105    0.53  0.000478  ( 0.009081 -0.012089 -0.015789)
 10:     85.11   0.000705    3.56  0.002586  ( 0.011503 -0.045373 -0.019876)
 11:    101.81   0.000533    2.70  0.001635  (-0.016632 -0.018691  0.031767)
 12:    113.92   0.001917    9.69  0.005251  (-0.022189  0.016875  0.066884)
 13:    134.69   0.000206    1.04  0.000478  ( 0.020101 -0.006997 -0.005004)
 14:    152.52   0.000134    0.68  0.000273  ( 0.010745 -0.012114  0.003341)
 15:    163.10   0.000111    0.56  0.000211  (-0.001569  0.007954 -0.012073)
 16:    173.47   0.000216    1.09  0.000388  (-0.019290 -0.003691  0.001503)
 17:    199.40   0.001050    5.31  0.001643  ( 0.040018 -0.006129 -0.001979)
 18:    230.31   0.002307   11.66  0.003127  (-0.015825  0.038546  0.037286)
 19:    250.34   0.001085    5.48  0.001352  ( 0.011163 -0.027448 -0.021774)
 20:    263.35   0.000599    3.03  0.000709  (-0.002410  0.013527 -0.022818)
 21:    283.68   0.001425    7.20  0.001567  ( 0.012332 -0.035034 -0.013707)
 22:    295.78   0.003506   17.72  0.003700  (-0.036540  0.048622  0.000487)
 23:    302.36   0.000621    3.14  0.000640  (-0.020095 -0.011907  0.009739)
 24:    328.17   0.000899    4.54  0.000855  ( 0.001273  0.027889 -0.008669)
 25:    348.50   0.001765    8.92  0.001580  (-0.038669  0.007757  0.004963)
 26:    354.49   0.001365    6.90  0.001201  (-0.025585  0.014836  0.018075)
 27:    375.52   0.001096    5.54  0.000910  ( 0.017676 -0.023220 -0.007671)
 28:    388.46   0.003938   19.90  0.003163  (-0.021066  0.051355  0.009064)
 29:    417.71   0.003945   19.93  0.002947  (-0.021282 -0.010023  0.048925)
 30:    432.61   0.010411   52.61  0.007510  ( 0.034465 -0.035831 -0.070982)
 31:    452.00   0.008352   42.21  0.005766  ( 0.045260 -0.033286 -0.051084)
 32:    476.22   0.001802    9.11  0.001181  (-0.005113  0.005405 -0.033546)
 33:    486.70   0.001823    9.21  0.001169  ( 0.004385 -0.029295  0.017072)
 34:    491.86   0.006061   30.63  0.003845  (-0.018994  0.041303 -0.042173)
 35:    518.39   0.032053  161.98  0.019295  ( 0.039776 -0.108985 -0.076390)
 36:    540.23   0.001517    7.67  0.000877  ( 0.007720  0.026983 -0.009427)
 37:    556.18   0.009462   47.82  0.005309  (-0.006141  0.068562 -0.023890)
 38:    595.37   0.035274  178.26  0.018489  (-0.121379  0.024389  0.056224)
 39:    637.78   0.053345  269.58  0.026101  (-0.095588  0.102522  0.080332)
 40:    656.22   0.264599  1337.18  0.125829  (-0.165684  0.085399  0.301803)
 41:    666.13   0.028011  141.56  0.013122  (-0.070194 -0.044125 -0.079046)
 42:    682.09   0.186636  943.18  0.085388  (-0.094057  0.257869 -0.100226)
 43:    685.05   0.014483   73.19  0.006597  (-0.059876  0.005336  0.054624)
 44:    699.83   0.006956   35.15  0.003102  ( 0.016188  0.052933  0.006151)
 45:    717.80   0.096473  487.53  0.041941  ( 0.074146 -0.104954 -0.159463)
 46:    730.75   0.082039  414.59  0.035034  (-0.023989  0.174318 -0.063811)
 47:    737.17   0.004022   20.32  0.001703  ( 0.013432  0.012251  0.037041)
 48:    740.03   0.034850  176.12  0.014696  ( 0.017754 -0.069209 -0.097932)
 49:    753.94   0.043370  219.17  0.017951  (-0.033543 -0.085317 -0.097711)
 50:    777.97   0.021118  106.72  0.008471  (-0.011035  0.039352 -0.082467)
 51:    801.36   0.059418  300.28  0.023138  ( 0.056150  0.131984 -0.050656)
 52:    844.84   0.027855  140.77  0.010289  ( 0.073471 -0.067563 -0.018056)
 53:    860.52   0.024713  124.89  0.008962  (-0.060987 -0.041952  0.059015)
 54:    903.68   0.010010   50.59  0.003457  ( 0.054765  0.000251  0.021392)
 55:    907.67   0.028749  145.29  0.009884  ( 0.027073  0.010809  0.095049)
 56:    957.42   0.031944  161.43  0.010412  ( 0.100030  0.006569  0.019046)
 57:    978.16   0.004317   21.82  0.001377  (-0.035920  0.000702  0.009306)
 58:   1014.33   0.046046  232.70  0.014166  (-0.086940 -0.007440  0.080946)
 59:   1032.14   0.034924  176.49  0.010559  (-0.054580 -0.046213 -0.073786)
 60:   1058.78   0.009555   48.29  0.002816  ( 0.022234  0.040828 -0.025592)
 61:   1127.86   0.038480  194.46  0.010647  ( 0.062660 -0.080950 -0.012950)
 62:   1142.68   0.043591  220.29  0.011905  ( 0.034194 -0.067779 -0.078367)
 63:   1552.60   0.026310  132.96  0.005288  (-0.065524  0.031539  0.000197)
 64:   1589.00   0.136901  691.84  0.026886  (-0.111528  0.083981  0.085992)
 65:   1612.43   0.030267  152.96  0.005858  ( 0.011819 -0.067644 -0.033799)
 66:   1659.49   0.012756   64.46  0.002399  ( 0.045817  0.011937  0.012534)
 67:   1684.17   0.206606  1044.10  0.038282  (-0.081436 -0.106023  0.142863)
 68:   1692.24   0.224906  1136.58  0.041475  (-0.112213  0.138172  0.098952)
 69:   1713.17   0.080032  404.45  0.014578  ( 0.052587 -0.077909 -0.075784)
 70:   1747.50   0.067387  340.55  0.012034  (-0.057183  0.063796 -0.068512)
 71:   1779.08   0.038430  194.21  0.006741  (-0.074309  0.021162 -0.027771)
 72:   1804.63   0.231091  1167.84  0.039961  (-0.028154  0.134431 -0.145248)
 73:   1823.56   0.173122  874.89  0.029626  (-0.001539 -0.131880 -0.110596)
 74:   1856.45   0.029736  150.27  0.004998  (-0.029639 -0.044082  0.046656)
 75:   1870.04   0.024199  122.29  0.004038  ( 0.036672  0.045284 -0.025352)
 76:   1873.89   0.008190   41.39  0.001364  ( 0.034530  0.002804 -0.012795)
 77:   1879.41   0.022199  112.18  0.003686  ( 0.020462 -0.002757  0.057094)
 78:   1888.61   0.055806  282.02  0.009221  ( 0.058432  0.074053  0.017972)
 79:   1896.38   0.010679   53.97  0.001757  ( 0.036939 -0.007119 -0.018497)
 80:   1900.78   0.007184   36.30  0.001179  (-0.029165  0.015543  0.009340)
 81:   1904.51   0.045713  231.01  0.007490  (-0.058662 -0.013014 -0.062287)
 82:   1911.46   0.021495  108.63  0.003509  (-0.047135  0.034804 -0.008726)
 83:   1919.32   0.019905  100.59  0.003236  (-0.043264 -0.012729  0.034677)

--------------------------
THERMOCHEMISTRY AT 298.15K
--------------------------

Temperature         ...   298.15 K
Pressure            ...     1.00 atm
Total Mass          ...   210.04 AMU
Quasi RRHO          ...     True
Cut-Off Frequency   ...     1.00 cm^-1

Throughout the following assumptions are being made:
  (1) The electronic state is orbitally nondegenerate
  (2) There are no thermally accessible electronically excited states
  (3) Hindered rotations indicated by low frequency modes are not
      treated as such but are treated as vibrations and this may
      cause some error
  (4) All equations used are the standard statistical mechanics
      equations for an ideal gas
  (5) All vibrations are strictly harmonic

freq.      21.32  E(vib)   ...       0.56
freq.      34.68  E(vib)   ...       0.54
freq.      63.74  E(vib)   ...       0.51
freq.      68.35  E(vib)   ...       0.50
freq.      85.11  E(vib)   ...       0.48
freq.     101.81  E(vib)   ...       0.46
freq.     113.92  E(vib)   ...       0.44
freq.     134.69  E(vib)   ...       0.42
freq.     152.52  E(vib)   ...       0.40
freq.     163.10  E(vib)   ...       0.39
freq.     173.47  E(vib)   ...       0.38
freq.     199.40  E(vib)   ...       0.35
freq.     230.31  E(vib)   ...       0.32
freq.     250.34  E(vib)   ...       0.30
freq.     263.35  E(vib)   ...       0.29
freq.     283.68  E(vib)   ...       0.28
freq.     295.78  E(vib)   ...       0.27
freq.     302.36  E(vib)   ...       0.26
freq.     328.17  E(vib)   ...       0.24
freq.     348.50  E(vib)   ...       0.23
freq.     354.49  E(vib)   ...       0.22
freq.     375.52  E(vib)   ...       0.21
freq.     388.46  E(vib)   ...       0.20
freq.     417.71  E(vib)   ...       0.18
freq.     432.61  E(vib)   ...       0.18
freq.     452.00  E(vib)   ...       0.16
freq.     476.22  E(vib)   ...       0.15
freq.     486.70  E(vib)   ...       0.15
freq.     491.86  E(vib)   ...       0.14
freq.     518.39  E(vib)   ...       0.13
freq.     540.23  E(vib)   ...       0.12
freq.     556.18  E(vib)   ...       0.12
freq.     595.37  E(vib)   ...       0.10
freq.     637.78  E(vib)   ...       0.09
freq.     656.22  E(vib)   ...       0.08
freq.     666.13  E(vib)   ...       0.08
freq.     682.09  E(vib)   ...       0.08
freq.     685.05  E(vib)   ...       0.07
freq.     699.83  E(vib)   ...       0.07
freq.     717.80  E(vib)   ...       0.07
freq.     730.75  E(vib)   ...       0.06
freq.     737.17  E(vib)   ...       0.06
freq.     740.03  E(vib)   ...       0.06
freq.     753.94  E(vib)   ...       0.06
freq.     777.97  E(vib)   ...       0.05
freq.     801.36  E(vib)   ...       0.05
freq.     844.84  E(vib)   ...       0.04
freq.     860.52  E(vib)   ...       0.04
freq.     903.68  E(vib)   ...       0.03
freq.     907.67  E(vib)   ...       0.03
freq.     957.42  E(vib)   ...       0.03
freq.     978.16  E(vib)   ...       0.03
freq.    1014.33  E(vib)   ...       0.02
freq.    1032.14  E(vib)   ...       0.02
freq.    1058.78  E(vib)   ...       0.02
freq.    1127.86  E(vib)   ...       0.01
freq.    1142.68  E(vib)   ...       0.01
freq.    1552.60  E(vib)   ...       0.00
freq.    1589.00  E(vib)   ...       0.00
freq.    1612.43  E(vib)   ...       0.00
freq.    1659.49  E(vib)   ...       0.00
freq.    1684.17  E(vib)   ...       0.00
freq.    1692.24  E(vib)   ...       0.00
freq.    1713.17  E(vib)   ...       0.00
freq.    1747.50  E(vib)   ...       0.00
freq.    1779.08  E(vib)   ...       0.00
freq.    1804.63  E(vib)   ...       0.00
freq.    1823.56  E(vib)   ...       0.00
freq.    1856.45  E(vib)   ...       0.00
freq.    1870.04  E(vib)   ...       0.00
freq.    1873.89  E(vib)   ...       0.00
freq.    1879.41  E(vib)   ...       0.00
freq.    1888.61  E(vib)   ...       0.00
freq.    1896.38  E(vib)   ...       0.00
freq.    1900.78  E(vib)   ...       0.00
freq.    1904.51  E(vib)   ...       0.00
freq.    1911.46  E(vib)   ...       0.00
freq.    1919.32  E(vib)   ...       0.00

------------
INNER ENERGY
------------

The inner energy is: U= E(el) + E(ZPE) + E(vib) + E(rot) + E(trans)
    E(el)   - is the total energy from the electronic structure calculation
              = E(kin-el) + E(nuc-el) + E(el-el) + E(nuc-nuc)
    E(ZPE)  - the the zero temperature vibrational energy from the frequency calculation
    E(vib)  - the the finite temperature correction to E(ZPE) due to population
              of excited vibrational states
    E(rot)  - is the rotational thermal energy
    E(trans)- is the translational thermal energy

Summary of contributions to the inner energy U:
Electronic energy                ...  -1707.89861730 Eh
Zero point energy                ...      0.15348758 Eh      96.31 kcal/mol
Thermal vibrational correction   ...      0.01737635 Eh      10.90 kcal/mol
Thermal rotational correction    ...      0.00141627 Eh       0.89 kcal/mol
Thermal translational correction ...      0.00141627 Eh       0.89 kcal/mol
-----------------------------------------------------------------------
Total thermal energy                  -1707.72492083 Eh

Summary of corrections to the electronic energy:
(perhaps to be used in another calculation)
Total thermal correction                  0.02020889 Eh      12.68 kcal/mol
Non-thermal (ZPE) correction              0.15348758 Eh      96.31 kcal/mol
-----------------------------------------------------------------------
Total correction                          0.17369647 Eh     109.00 kcal/mol

--------
ENTHALPY
--------

The enthalpy is H = U + kB*T
                kB is Boltzmann's constant
Total thermal energy              ...  -1707.72492083 Eh
Thermal Enthalpy correction       ...      0.00094421 Eh       0.59 kcal/mol
-----------------------------------------------------------------------
Total Enthalpy                    ...  -1707.72397662 Eh

Note: Only C1 symmetry has been detected, increase convergence thresholds
      if your molecule has a higher symmetry. Symmetry factor of 1.0 is
      used for the rotational entropy correction.

Note: Rotational entropy computed according to Herzberg
Infrared and Raman Spectra, Chapter V,1, Van Nostrand Reinhold, 1945
Point Group:  C1, Symmetry Number:   1
Rotational constants in cm-1:     0.021775     0.012420     0.009084

Vibrational entropy computed according to the QRRHO of S. Grimme
Chem.Eur.J. 2012 18 9955 using a reference frequency of 100.0 cm-1

-------
ENTROPY
-------

The entropy contributions are T*S = T*(S(el)+S(vib)+S(rot)+S(trans))
     S(el)   - electronic entropy

                             ****ORCA TERMINATED NORMALLY****
TOTAL RUN TIME: 0 days 0 hours 8 minutes 45 seconds 652 msec
