                         Program Version 6.1.0  -  RELEASE   -
|  1> # Geometry optimization for (AlH3)n cluster
|  2>
|  3> %pal nprocs 24  end
|  4>
|  5> %geom MaxIter 500 end
|  6>
|  7>
|  8> ! PBE pc-1
|  9> ! RKS	# closed shell for AlH3
| 10> ! D3    #  dispersion correction
| 11> ! Freq 	# Frequency analysis to check the stabiltity of the structures
| 12>
| 13> ! NoPop # population analysis not necessary
| 14>
| 15> ! DEFGRID3
| 16> ! TightSCF
| 17> ! TightOpt
| 18>
| 19> ! SmallPrint
| 20>
| 21>
| 22> * xyzFile 0 1 start.xyz # only maingroup elements H and Al so there should be no net spin
| 23>
| 24>                          ****END OF INPUT****
 Total Charge           Charge          ....    0
 Multiplicity           Mult            ....    1
 Number of Electrons    NEL             ....   48
Dispersion correction           -0.008909393
FINAL SINGLE POINT ENERGY      -732.215874485829
Dispersion correction             ... done (  0.1 sec)
Dispersion correction           -0.008925482
FINAL SINGLE POINT ENERGY      -732.220320330047
Dispersion correction             ... done (  0.1 sec)
Dispersion correction           -0.008955483
FINAL SINGLE POINT ENERGY      -732.226967339389
Dispersion correction             ... done (  0.1 sec)
FINAL SINGLE POINT ENERGY      -732.230364273840
FINAL SINGLE POINT ENERGY      -732.233810244432
FINAL SINGLE POINT ENERGY      -732.235502448021
FINAL SINGLE POINT ENERGY      -732.235678088537
FINAL SINGLE POINT ENERGY      -732.235909550306
FINAL SINGLE POINT ENERGY      -732.236120572717
FINAL SINGLE POINT ENERGY      -732.236215906341
FINAL SINGLE POINT ENERGY      -732.236305915626
FINAL SINGLE POINT ENERGY      -732.236307895776
FINAL SINGLE POINT ENERGY      -732.236309528560
FINAL SINGLE POINT ENERGY      -732.236311082556
FINAL SINGLE POINT ENERGY      -732.236312631828
FINAL SINGLE POINT ENERGY      -732.236314167466
FINAL SINGLE POINT ENERGY      -732.236315469198
Dispersion correction             ... done (  0.1 sec)
Dispersion correction           -0.009015367
FINAL SINGLE POINT ENERGY      -732.236316233326
Dispersion correction             ... done (  0.1 sec)
Dispersion correction           -0.009015947
FINAL SINGLE POINT ENERGY      -732.236316514917
Dispersion correction             ... done (  0.1 sec)
                    ***********************HURRAY********************

CARTESIAN COORDINATES (ANGSTROEM)
---------------------------------
  Al    -0.237216    1.529188    2.573227
  Al    -0.000009   -0.000422   -0.102299
  H      0.829153   -0.977253    1.047581
  H     -1.146966   -0.865668   -0.782506
  H     -0.818630    0.984684    1.048253
  H     -1.510867    2.163107    3.282858
  H      0.003430    0.000650    3.314315
  H      1.140035    0.860105   -0.799845
  Al     0.264192   -1.526332    2.577002
  H      1.549403   -2.142488    3.281379
  H     -1.175436   -2.171347    2.372018
  H      1.209852    2.154087    2.358377

 Multiplicity           Mult            ....    1
 Number of Electrons    NEL             ....   48
 Basis Dimension        Dim             ....   99

ORBITAL ENERGIES
----------------

  NO   OCC          E(Eh)            E(eV)
   0   2.0000     -55.373021     -1506.7765
   1   2.0000     -55.373002     -1506.7760
   2   2.0000     -55.372731     -1506.7686
   3   2.0000      -3.944875      -107.3455
   4   2.0000      -3.944836      -107.3444
   5   2.0000      -3.944301      -107.3299
   6   2.0000      -2.549911       -69.3866
   7   2.0000      -2.549877       -69.3857
   8   2.0000      -2.549547       -69.3767
   9   2.0000      -2.548060       -69.3362
  10   2.0000      -2.547980       -69.3341
  11   2.0000      -2.547349       -69.3169
  12   2.0000      -2.542063       -69.1730
  13   2.0000      -2.542031       -69.1722
  14   2.0000      -2.541447       -69.1563
  15   2.0000      -0.484679       -13.1888
  16   2.0000      -0.398442       -10.8421
  17   2.0000      -0.396233       -10.7820
  18   2.0000      -0.313214        -8.5230
  19   2.0000      -0.308792        -8.4027
  20   2.0000      -0.296300        -8.0627
  21   2.0000      -0.288563        -7.8522
  22   2.0000      -0.276502        -7.5240
  23   2.0000      -0.271608        -7.3908
  24   0.0000      -0.060757        -1.6533
  25   0.0000      -0.056075        -1.5259
  26   0.0000      -0.051352        -1.3974
  27   0.0000      -0.037370        -1.0169
  28   0.0000      -0.009830        -0.2675

-------
TIMINGS
-------

Dispersion correction           -0.009015864
FINAL SINGLE POINT ENERGY      -732.236316625045

DIPOLE MOMENT
-------------

Method             : SCF
Type of density    : Electron Density
Multiplicity       :   1
Irrep              :   0
Energy             :  -732.2273007611532876 Eh
Basis              : AO
                                X                 Y                 Z
Electronic contribution:     -0.000570541       0.003095932       0.076715045
Nuclear contribution   :     -0.000812512      -0.001245835      -0.018669669
                        -----------------------------------------
Total Dipole Moment    :     -0.001383053       0.001850097       0.058045376
                        -----------------------------------------
Magnitude (a.u.)       :      0.058091319
Magnitude (Debye)      :      0.147656399

VIBRATIONAL FREQUENCIES
-----------------------

Scaling factor for frequencies =  1.000000000  (already applied!)

     0:       0.00 cm**-1
     1:       0.00 cm**-1
     2:       0.00 cm**-1
     3:       0.00 cm**-1
     4:       0.00 cm**-1
     5:       0.00 cm**-1
     6:     -17.27 cm**-1  ***imaginary mode***
     7:     127.41 cm**-1
     8:     148.56 cm**-1
     9:     227.37 cm**-1
    10:     290.88 cm**-1
    11:     314.99 cm**-1
    12:     415.15 cm**-1
    13:     429.70 cm**-1
    14:     440.51 cm**-1
    15:     488.23 cm**-1
    16:     509.39 cm**-1
    17:     575.94 cm**-1
    18:     675.36 cm**-1
    19:     675.66 cm**-1
    20:     710.65 cm**-1
    21:     732.68 cm**-1
    22:     753.25 cm**-1
    23:     757.15 cm**-1
    24:    1057.89 cm**-1
    25:    1059.78 cm**-1
    26:    1111.46 cm**-1
    27:    1728.52 cm**-1
    28:    1786.22 cm**-1
    29:    1806.18 cm**-1
    30:    1917.20 cm**-1
    31:    1919.33 cm**-1
    32:    1919.79 cm**-1
    33:    1931.80 cm**-1
    34:    1931.86 cm**-1
    35:    1939.54 cm**-1

IR SPECTRUM
-----------

 Mode   freq       eps      Int      T**2         TX        TY        TZ
       cm**-1   L/(mol*cm) km/mol    a.u.
----------------------------------------------------------------------------
  7:    127.41   0.000237    1.20  0.000581  ( 0.000763  0.000029 -0.024095)
  8:    148.56   0.000037    0.19  0.000077  ( 0.008375  0.002674 -0.000016)
  9:    227.37   0.000478    2.42  0.000656  (-0.000044  0.000113 -0.025622)
 10:    290.88   0.001706    8.62  0.001830  (-0.035643  0.023655  0.000659)
 11:    314.99   0.000065    0.33  0.000064  (-0.000455  0.000100  0.007983)
 12:    415.15   0.000871    4.40  0.000655  (-0.022332  0.012485  0.000025)
 13:    429.70   0.000003    0.01  0.000002  (-0.000034  0.000088  0.001432)
 14:    440.51   0.002281   11.53  0.001616  ( 0.000175 -0.000478  0.040194)
 15:    488.23   0.000029    0.14  0.000018  (-0.004119  0.001068  0.000434)
 16:    509.39   0.011495   58.09  0.007042  (-0.067388  0.050008  0.000550)
 17:    575.94   0.026171  132.26  0.014180  (-0.000359 -0.000790  0.119077)
 18:    675.36   0.122766  620.41  0.056726  ( 0.008124  0.233189  0.047783)
 19:    675.66   0.095981  485.05  0.044330  (-0.000042 -0.054533  0.203362)
 20:    710.65   0.000108    0.55  0.000048  ( 0.000527  0.000443  0.006858)
 21:    732.68   0.036537  184.64  0.015562  (-0.075810  0.099027 -0.002927)
 22:    753.25   0.037361  188.81  0.015478  (-0.056451 -0.109493 -0.017407)
 23:    757.15   0.032839  165.96  0.013535  (-0.009247 -0.013405  0.115194)
 24:   1057.89   0.043365  219.15  0.012792  ( 0.069341 -0.026818 -0.085234)
 25:   1059.78   0.044327  224.01  0.013052  ( 0.084798 -0.034232  0.068484)
 26:   1111.46   0.000124    0.63  0.000035  (-0.003179  0.001241  0.004823)
 27:   1728.52   0.006307   31.87  0.001139  ( 0.005680 -0.033152 -0.002706)
 28:   1786.22   0.211260  1067.62  0.036908  ( 0.000571  0.003327  0.192086)
 29:   1806.18   0.216611  1094.66  0.037425  ( 0.026839 -0.191541  0.004070)
 30:   1917.20   0.000051    0.26  0.000008  ( 0.000450  0.000168 -0.002849)
 31:   1919.33   0.000870    4.40  0.000141  (-0.009442 -0.007096 -0.001406)
 32:   1919.79   0.001443    7.29  0.000235  ( 0.000659  0.000086 -0.015303)
 33:   1931.80   0.011329   57.25  0.001830  ( 0.029549 -0.029693 -0.008679)
 34:   1931.86   0.007282   36.80  0.001176  (-0.007871  0.007544 -0.032519)
 35:   1939.54   0.084138  425.20  0.013538  (-0.110786 -0.035552  0.000395)

--------------------------
THERMOCHEMISTRY AT 298.15K
--------------------------

Temperature         ...   298.15 K
Pressure            ...     1.00 atm
Total Mass          ...    90.02 AMU
Quasi RRHO          ...     True
Cut-Off Frequency   ...     1.00 cm^-1

Throughout the following assumptions are being made:
  (1) The electronic state is orbitally nondegenerate
  (2) There are no thermally accessible electronically excited states
  (3) Hindered rotations indicated by low frequency modes are not
      treated as such but are treated as vibrations and this may
      cause some error
  (4) All equations used are the standard statistical mechanics
      equations for an ideal gas
  (5) All vibrations are strictly harmonic

freq.     127.41  E(vib)   ...       0.43
freq.     148.56  E(vib)   ...       0.41
freq.     227.37  E(vib)   ...       0.33
freq.     290.88  E(vib)   ...       0.27
freq.     314.99  E(vib)   ...       0.25
freq.     415.15  E(vib)   ...       0.19
freq.     429.70  E(vib)   ...       0.18
freq.     440.51  E(vib)   ...       0.17
freq.     488.23  E(vib)   ...       0.15
freq.     509.39  E(vib)   ...       0.14
freq.     575.94  E(vib)   ...       0.11
freq.     675.36  E(vib)   ...       0.08
freq.     675.66  E(vib)   ...       0.08
freq.     710.65  E(vib)   ...       0.07
freq.     732.68  E(vib)   ...       0.06
freq.     753.25  E(vib)   ...       0.06
freq.     757.15  E(vib)   ...       0.06
freq.    1057.89  E(vib)   ...       0.02
freq.    1059.78  E(vib)   ...       0.02
freq.    1111.46  E(vib)   ...       0.01
freq.    1728.52  E(vib)   ...       0.00
freq.    1786.22  E(vib)   ...       0.00
freq.    1806.18  E(vib)   ...       0.00
freq.    1917.20  E(vib)   ...       0.00
freq.    1919.33  E(vib)   ...       0.00
freq.    1919.79  E(vib)   ...       0.00
freq.    1931.80  E(vib)   ...       0.00
freq.    1931.86  E(vib)   ...       0.00
freq.    1939.54  E(vib)   ...       0.00

------------
INNER ENERGY
------------

The inner energy is: U= E(el) + E(ZPE) + E(vib) + E(rot) + E(trans)
    E(el)   - is the total energy from the electronic structure calculation
              = E(kin-el) + E(nuc-el) + E(el-el) + E(nuc-nuc)
    E(ZPE)  - the the zero temperature vibrational energy from the frequency calculation
    E(vib)  - the the finite temperature correction to E(ZPE) due to population
              of excited vibrational states
    E(rot)  - is the rotational thermal energy
    E(trans)- is the translational thermal energy

Summary of contributions to the inner energy U:
Electronic energy                ...   -732.23631663 Eh
Zero point energy                ...      0.06465996 Eh      40.57 kcal/mol
Thermal vibrational correction   ...      0.00488561 Eh       3.07 kcal/mol
Thermal rotational correction    ...      0.00141627 Eh       0.89 kcal/mol
Thermal translational correction ...      0.00141627 Eh       0.89 kcal/mol
-----------------------------------------------------------------------
Total thermal energy                   -732.16393851 Eh

Summary of corrections to the electronic energy:
(perhaps to be used in another calculation)
Total thermal correction                  0.00771815 Eh       4.84 kcal/mol
Non-thermal (ZPE) correction              0.06465996 Eh      40.57 kcal/mol
-----------------------------------------------------------------------
Total correction                          0.07237811 Eh      45.42 kcal/mol

--------
ENTHALPY
--------

The enthalpy is H = U + kB*T
                kB is Boltzmann's constant
Total thermal energy              ...   -732.16393851 Eh
Thermal Enthalpy correction       ...      0.00094421 Eh       0.59 kcal/mol
-----------------------------------------------------------------------
Total Enthalpy                    ...   -732.16299430 Eh

Note: Only C1 symmetry has been detected, increase convergence thresholds
      if your molecule has a higher symmetry. Symmetry factor of 1.0 is
      used for the rotational entropy correction.

Note: Rotational entropy computed according to Herzberg
Infrared and Raman Spectra, Chapter V,1, Van Nostrand Reinhold, 1945
Point Group:  C1, Symmetry Number:   1
Rotational constants in cm-1:     0.103830     0.103295     0.055725

Vibrational entropy computed according to the QRRHO of S. Grimme
Chem.Eur.J. 2012 18 9955 using a reference frequency of 100.0 cm-1

-------
ENTROPY
-------

The entropy contributions are T*S = T*(S(el)+S(vib)+S(rot)+S(trans))
     S(el)   - electronic entropy
     S(vib)  - vibrational entropy
     S(rot)  - rotational entropy
     S(trans)- translational entropy
The entropies will be listed as multiplied by the temperature to get
units of energy

Electronic entropy                ...      0.00000000 Eh      0.00 kcal/mol
Vibrational entropy               ...      0.00790166 Eh      4.96 kcal/mol
Rotational entropy                ...      0.01301490 Eh      8.17 kcal/mol
Translational entropy             ...      0.01872231 Eh     11.75 kcal/mol
-----------------------------------------------------------------------
Final entropy term                ...      0.03963886 Eh     24.87 kcal/mol

In case the symmetry of your molecule has not been determined correctly
or in case you have a reason to use a different symmetry number we print
out the resulting rotational entropy values for sn=1,12:

 non-linear molecules -----------------------------------
|  sn= 1 | S(rot)=       0.01301490 Eh      8.17 kcal/mol|
|  sn= 2 | S(rot)=       0.01236044 Eh      7.76 kcal/mol|
|  sn= 3 | S(rot)=       0.01197761 Eh      7.52 kcal/mol|
|  sn= 4 | S(rot)=       0.01170598 Eh      7.35 kcal/mol|
|  sn= 5 | S(rot)=       0.01149530 Eh      7.21 kcal/mol|
|  sn= 6 | S(rot)=       0.01132315 Eh      7.11 kcal/mol|
|  sn= 7 | S(rot)=       0.01117761 Eh      7.01 kcal/mol|
|  sn= 8 | S(rot)=       0.01105153 Eh      6.93 kcal/mol|
|  sn= 9 | S(rot)=       0.01094032 Eh      6.87 kcal/mol|
|  sn=10 | S(rot)=       0.01084084 Eh      6.80 kcal/mol|
|  sn=11 | S(rot)=       0.01075085 Eh      6.75 kcal/mol|
|  sn=12 | S(rot)=       0.01066870 Eh      6.69 kcal/mol|
 linear molecules ---------------------------------------
|  Dinfh | S(rot)=       0.00805196 Eh      5.05 kcal/mol|
|  Cinfv | S(rot)=       0.00870641 Eh      5.46 kcal/mol|
 --------------------------------------------------------

-------------------
GIBBS FREE ENERGY
-------------------

The Gibbs free energy is G = H - T*S

Total enthalpy                    ...   -732.16299430 Eh
Total entropy correction          ...     -0.03963886 Eh    -24.87 kcal/mol
-----------------------------------------------------------------------
Final Gibbs free energy         ...   -732.20263317 Eh

For completeness - the Gibbs free energy minus the electronic energy
G-E(el)                           ...      0.03368346 Eh     21.14 kcal/mol

                             ****ORCA TERMINATED NORMALLY****
TOTAL RUN TIME: 0 days 0 hours 5 minutes 11 seconds 292 msec
