                         Program Version 6.1.0  -  RELEASE   -
|  1> # Geometry optimization for (AlH3)n cluster
|  2>
|  3> %pal nprocs 24  end
|  4>
|  5> %geom MaxIter 500 end
|  6>
|  7> %elprop Polar 1 end # invoke raman
|  8>
|  9> ! PBEh-3c
| 10> ! RKS	# closed shell for AlH3
| 11> ! Freq 	# Frequency analysis to check the stabiltity of the structures
| 12>
| 13>
| 14> ! NoPop # population analysis not necessary
| 15>
| 16> ! DEFGRID3
| 17> ! ExtremeSCF
| 18> ! VeryTightOpt
| 19>
| 20>
| 21> ! SmallPrint
| 22>
| 23>
| 24> * xyzFile 0 1 start.xyz # only maingroup elements H and Al so there should be no net spin
| 25>
| 26>                          ****END OF INPUT****
 Total Charge           Charge          ....    0
 Multiplicity           Mult            ....    1
 Number of Electrons    NEL             ....   64
Dispersion correction           -0.006893355
FINAL SINGLE POINT ENERGY      -975.585955796986
Dispersion correction             ... done (  0.1 sec)
Dispersion correction           -0.006914943
FINAL SINGLE POINT ENERGY      -975.586497267669
Dispersion correction             ... done (  0.1 sec)
Dispersion correction           -0.006965504
FINAL SINGLE POINT ENERGY      -975.587061414010
Dispersion correction             ... done (  0.1 sec)
FINAL SINGLE POINT ENERGY      -975.587107332011
FINAL SINGLE POINT ENERGY      -975.587284635951
FINAL SINGLE POINT ENERGY      -975.587311531067
FINAL SINGLE POINT ENERGY      -975.587376177552
FINAL SINGLE POINT ENERGY      -975.587397709308
FINAL SINGLE POINT ENERGY      -975.587411579084
FINAL SINGLE POINT ENERGY      -975.587426191733
FINAL SINGLE POINT ENERGY      -975.587541784146
FINAL SINGLE POINT ENERGY      -975.587541797580
FINAL SINGLE POINT ENERGY      -975.587541805685
FINAL SINGLE POINT ENERGY      -975.587541813720
FINAL SINGLE POINT ENERGY      -975.587541817295
FINAL SINGLE POINT ENERGY      -975.587541819236
FINAL SINGLE POINT ENERGY      -975.587541819813
Dispersion correction             ... done (  0.1 sec)
Dispersion correction           -0.006894464
FINAL SINGLE POINT ENERGY      -975.587541820550
Dispersion correction             ... done (  0.1 sec)
Dispersion correction           -0.006894472
FINAL SINGLE POINT ENERGY      -975.587541821014
Dispersion correction             ... done (  0.1 sec)
                    ***********************HURRAY********************

CARTESIAN COORDINATES (ANGSTROEM)
---------------------------------
  Al     0.700384    1.183845    2.548199
  Al    -0.277977   -0.482378    0.113204
  H      0.525958   -1.947137    0.381101
  H     -1.637640   -0.554198    0.904866
  H      0.797668    0.440778    1.026210
  H     -0.464981    2.237518    2.486019
  H      0.100048   -0.163821    3.354708
  H     -0.033984   -0.115135   -1.393959
  Al     1.178086   -2.782004    1.700720
  H     -0.170228   -2.563222    2.689075
  H      1.207207   -4.297986    1.292217
  H      2.187015    1.401015    3.003666
  Al    -0.483212   -1.584604    4.039009
  H     -2.047134   -1.477191    4.124463
  H      0.529578   -1.998829    5.168105
  H      2.342473   -1.891450    2.276626

 Multiplicity           Mult            ....    1
 Number of Electrons    NEL             ....   64
 Basis Dimension        Dim             ....   96

ORBITAL ENERGIES
----------------

  NO   OCC          E(Eh)            E(eV)
   0   2.0000     -56.625252     -1540.8514
   1   2.0000     -56.625182     -1540.8496
   2   2.0000     -56.624274     -1540.8248
   3   2.0000     -56.624180     -1540.8223
   4   2.0000      -4.366656      -118.8228
   5   2.0000      -4.366626      -118.8219
   6   2.0000      -4.364514      -118.7645
   7   2.0000      -4.364466      -118.7631
   8   2.0000      -2.857580       -77.7587
   9   2.0000      -2.857521       -77.7571
  10   2.0000      -2.855827       -77.7110
  11   2.0000      -2.855780       -77.7097
  12   2.0000      -2.855513       -77.7025
  13   2.0000      -2.855436       -77.7004
  14   2.0000      -2.853768       -77.6550
  15   2.0000      -2.853702       -77.6532
  16   2.0000      -2.851382       -77.5900
  17   2.0000      -2.851372       -77.5898
  18   2.0000      -2.849115       -77.5283
  19   2.0000      -2.849107       -77.5282
  20   2.0000      -0.602033       -16.3821
  21   2.0000      -0.534748       -14.5512
  22   2.0000      -0.528843       -14.3906
  23   2.0000      -0.450166       -12.2496
  24   2.0000      -0.426897       -11.6164
  25   2.0000      -0.394649       -10.7389
  26   2.0000      -0.388494       -10.5715
  27   2.0000      -0.383911       -10.4467
  28   2.0000      -0.375403       -10.2152
  29   2.0000      -0.365165        -9.9367
  30   2.0000      -0.359495        -9.7824
  31   2.0000      -0.356440        -9.6992
  32   0.0000      -0.015617        -0.4250
  33   0.0000      -0.008790        -0.2392
  34   0.0000      -0.002892        -0.0787
  35   0.0000      -0.000353        -0.0096
  36   0.0000       0.019084         0.5193

-------
TIMINGS
-------

Dispersion correction           -0.006894477
FINAL SINGLE POINT ENERGY      -975.587541821049

DIPOLE MOMENT
-------------

Method             : SCF
Type of density    : Electron Density
Multiplicity       :   1
Irrep              :   0
Energy             :  -975.6071533058707246 Eh
Basis              : AO
                                X                 Y                 Z
Electronic contribution:      0.042430848      -0.176343966      -0.294017746
Nuclear contribution   :     -0.013864299       0.057477305       0.095877680
                        -----------------------------------------
Total Dipole Moment    :      0.028566549      -0.118866661      -0.198140066
                        -----------------------------------------
Magnitude (a.u.)       :      0.232819279
Magnitude (Debye)      :      0.591779578

VIBRATIONAL FREQUENCIES
-----------------------

Scaling factor for frequencies =  1.000000000  (already applied!)

     0:       0.00 cm**-1
     1:       0.00 cm**-1
     2:       0.00 cm**-1
     3:       0.00 cm**-1
     4:       0.00 cm**-1
     5:       0.00 cm**-1
     6:      52.51 cm**-1
     7:      61.71 cm**-1
     8:     129.60 cm**-1
     9:     136.39 cm**-1
    10:     140.28 cm**-1
    11:     155.78 cm**-1
    12:     253.75 cm**-1
    13:     274.87 cm**-1
    14:     293.79 cm**-1
    15:     378.66 cm**-1
    16:     382.72 cm**-1
    17:     396.68 cm**-1
    18:     414.26 cm**-1
    19:     437.37 cm**-1
    20:     486.94 cm**-1
    21:     516.72 cm**-1
    22:     557.86 cm**-1
    23:     627.70 cm**-1
    24:     708.65 cm**-1
    25:     718.72 cm**-1
    26:     723.78 cm**-1
    27:     750.09 cm**-1
    28:     768.09 cm**-1
    29:     779.31 cm**-1
    30:     794.14 cm**-1
    31:     801.30 cm**-1
    32:     823.64 cm**-1
    33:    1020.04 cm**-1
    34:    1073.15 cm**-1
    35:    1073.41 cm**-1
    36:    1851.63 cm**-1
    37:    1915.48 cm**-1
    38:    1940.46 cm**-1
    39:    1994.72 cm**-1
    40:    2006.51 cm**-1
    41:    2013.42 cm**-1
    42:    2017.49 cm**-1
    43:    2028.70 cm**-1
    44:    2029.93 cm**-1
    45:    2031.04 cm**-1
    46:    2034.65 cm**-1
    47:    2108.67 cm**-1

IR SPECTRUM
-----------

 Mode   freq       eps      Int      T**2         TX        TY        TZ
       cm**-1   L/(mol*cm) km/mol    a.u.
----------------------------------------------------------------------------
  6:     52.51   0.000010    0.05  0.000062  ( 0.000740 -0.004130 -0.006682)
  7:     61.71   0.000128    0.65  0.000646  (-0.021076 -0.013305  0.004979)
  8:    129.60   0.000000    0.00  0.000000  ( 0.000045 -0.000198  0.000147)
  9:    136.39   0.000077    0.39  0.000177  (-0.000498 -0.011845  0.006058)
 10:    140.28   0.000327    1.65  0.000728  (-0.003286  0.013551  0.023096)
 11:    155.78   0.000210    1.06  0.000421  (-0.010352 -0.015750  0.008130)
 12:    253.75   0.000130    0.66  0.000160  (-0.009250  0.006833 -0.005254)
 13:    274.87   0.000429    2.17  0.000487  (-0.002674  0.011249  0.018788)
 14:    293.79   0.001003    5.07  0.001065  ( 0.003983 -0.016623 -0.027800)
 15:    378.66   0.002006   10.14  0.001653  (-0.022718 -0.030130  0.015140)
 16:    382.72   0.002450   12.38  0.001997  (-0.005303  0.022948  0.037983)
 17:    396.68   0.001247    6.30  0.000981  ( 0.020708  0.021382 -0.009763)
 18:    414.26   0.000212    1.07  0.000160  (-0.001574  0.006427  0.010758)
 19:    437.37   0.000013    0.07  0.000010  ( 0.000383 -0.001552 -0.002647)
 20:    486.94   0.000786    3.97  0.000504  (-0.002749  0.011458  0.019102)
 21:    516.72   0.000603    3.05  0.000364  ( 0.003179 -0.015938  0.010007)
 22:    557.86   0.012060   60.95  0.006746  (-0.006915 -0.070604  0.041397)
 23:    627.70   0.047283  238.95  0.023507  (-0.018668  0.078179  0.130564)
 24:    708.65   0.143736  726.38  0.063296  ( 0.093995  0.205982 -0.109694)
 25:    718.72   0.118574  599.22  0.051484  ( 0.028322 -0.116114 -0.192872)
 26:    723.78   0.120956  611.26  0.052152  (-0.162906  0.125385 -0.099458)
 27:    750.09   0.000127    0.64  0.000053  (-0.000844  0.003818  0.006132)
 28:    768.09   0.036649  185.21  0.014890  (-0.060531 -0.094383  0.048143)
 29:    779.31   0.039985  202.07  0.016011  ( 0.015188 -0.064772 -0.107634)
 30:    794.14   0.049059  247.92  0.019278  (-0.008823  0.118344 -0.072076)
 31:    801.30   0.040512  204.73  0.015777  ( 0.100798 -0.056960  0.048711)
 32:    823.64   0.035723  180.53  0.013535  (-0.014413  0.059231  0.099090)
 33:   1020.04   0.033519  169.39  0.010255  ( 0.012298 -0.051738 -0.086177)
 34:   1073.15   0.032321  163.33  0.009399  ( 0.084988  0.017226 -0.043346)
 35:   1073.41   0.030547  154.37  0.008881  ( 0.072211  0.055646  0.023871)
 36:   1851.63   0.030570  154.49  0.005152  (-0.016432 -0.060999  0.034076)
 37:   1915.48   0.257772  1302.67  0.041995  ( 0.024835 -0.104547 -0.174495)
 38:   1940.46   0.159333  805.21  0.025624  (-0.111049  0.091311 -0.070388)
 39:   1994.72   0.079436  401.44  0.012427  ( 0.017484  0.095538 -0.054719)
 40:   2006.51   0.037108  187.53  0.005771  (-0.009245  0.038475  0.064850)
 41:   2013.42   0.047449  239.79  0.007354  (-0.004310 -0.073798  0.043467)
 42:   2017.49   0.001985   10.03  0.000307  (-0.002147  0.009013  0.014873)
 43:   2028.70   0.023276  117.63  0.003580  ( 0.007033 -0.030289 -0.051122)
 44:   2029.93   0.009315   47.08  0.001432  (-0.029322  0.019035 -0.014488)
 45:   2031.04   0.000886    4.48  0.000136  ( 0.001315 -0.005932 -0.009963)
 46:   2034.65   0.080628  407.46  0.012366  ( 0.110244  0.002559  0.014356)
 47:   2108.67   0.179303  906.13  0.026535  (-0.060674 -0.133319  0.071274)

--------------------------
THERMOCHEMISTRY AT 298.15K
--------------------------

Temperature         ...   298.15 K
Pressure            ...     1.00 atm
Total Mass          ...   120.02 AMU
Quasi RRHO          ...     True
Cut-Off Frequency   ...     1.00 cm^-1

Throughout the following assumptions are being made:
  (1) The electronic state is orbitally nondegenerate
  (2) There are no thermally accessible electronically excited states
  (3) Hindered rotations indicated by low frequency modes are not
      treated as such but are treated as vibrations and this may
      cause some error
  (4) All equations used are the standard statistical mechanics
      equations for an ideal gas
  (5) All vibrations are strictly harmonic

freq.      52.51  E(vib)   ...       0.52
freq.      61.71  E(vib)   ...       0.51
freq.     129.60  E(vib)   ...       0.43
freq.     136.39  E(vib)   ...       0.42
freq.     140.28  E(vib)   ...       0.41
freq.     155.78  E(vib)   ...       0.40
freq.     253.75  E(vib)   ...       0.30
freq.     274.87  E(vib)   ...       0.28
freq.     293.79  E(vib)   ...       0.27
freq.     378.66  E(vib)   ...       0.21
freq.     382.72  E(vib)   ...       0.20
freq.     396.68  E(vib)   ...       0.20
freq.     414.26  E(vib)   ...       0.19
freq.     437.37  E(vib)   ...       0.17
freq.     486.94  E(vib)   ...       0.15
freq.     516.72  E(vib)   ...       0.13
freq.     557.86  E(vib)   ...       0.12
freq.     627.70  E(vib)   ...       0.09
freq.     708.65  E(vib)   ...       0.07
freq.     718.72  E(vib)   ...       0.07
freq.     723.78  E(vib)   ...       0.06
freq.     750.09  E(vib)   ...       0.06
freq.     768.09  E(vib)   ...       0.06
freq.     779.31  E(vib)   ...       0.05
freq.     794.14  E(vib)   ...       0.05
freq.     801.30  E(vib)   ...       0.05
freq.     823.64  E(vib)   ...       0.05
freq.    1020.04  E(vib)   ...       0.02
freq.    1073.15  E(vib)   ...       0.02
freq.    1073.41  E(vib)   ...       0.02
freq.    1851.63  E(vib)   ...       0.00
freq.    1915.48  E(vib)   ...       0.00
freq.    1940.46  E(vib)   ...       0.00
freq.    1994.72  E(vib)   ...       0.00
freq.    2006.51  E(vib)   ...       0.00
freq.    2013.42  E(vib)   ...       0.00
freq.    2017.49  E(vib)   ...       0.00
freq.    2028.70  E(vib)   ...       0.00
freq.    2029.93  E(vib)   ...       0.00
freq.    2031.04  E(vib)   ...       0.00
freq.    2034.65  E(vib)   ...       0.00
freq.    2108.67  E(vib)   ...       0.00

------------
INNER ENERGY
------------

The inner energy is: U= E(el) + E(ZPE) + E(vib) + E(rot) + E(trans)
    E(el)   - is the total energy from the electronic structure calculation
              = E(kin-el) + E(nuc-el) + E(el-el) + E(nuc-nuc)
    E(ZPE)  - the the zero temperature vibrational energy from the frequency calculation
    E(vib)  - the the finite temperature correction to E(ZPE) due to population
              of excited vibrational states
    E(rot)  - is the rotational thermal energy
    E(trans)- is the translational thermal energy

Summary of contributions to the inner energy U:
Electronic energy                ...   -975.58754182 Eh
Zero point energy                ...      0.09045366 Eh      56.76 kcal/mol
Thermal vibrational correction   ...      0.00887098 Eh       5.57 kcal/mol
Thermal rotational correction    ...      0.00141627 Eh       0.89 kcal/mol
Thermal translational correction ...      0.00141627 Eh       0.89 kcal/mol
-----------------------------------------------------------------------
Total thermal energy                   -975.48538464 Eh

Summary of corrections to the electronic energy:
(perhaps to be used in another calculation)
Total thermal correction                  0.01170352 Eh       7.34 kcal/mol
Non-thermal (ZPE) correction              0.09045366 Eh      56.76 kcal/mol
-----------------------------------------------------------------------
Total correction                          0.10215718 Eh      64.10 kcal/mol

--------
ENTHALPY
--------

The enthalpy is H = U + kB*T
                kB is Boltzmann's constant
Total thermal energy              ...   -975.48538464 Eh
Thermal Enthalpy correction       ...      0.00094421 Eh       0.59 kcal/mol
-----------------------------------------------------------------------
Total Enthalpy                    ...   -975.48444043 Eh

Note: Only C1 symmetry has been detected, increase convergence thresholds
      if your molecule has a higher symmetry. Symmetry factor of 1.0 is
      used for the rotational entropy correction.

Note: Rotational entropy computed according to Herzberg
Infrared and Raman Spectra, Chapter V,1, Van Nostrand Reinhold, 1945
Point Group:  C1, Symmetry Number:   1
Rotational constants in cm-1:     0.053759     0.049188     0.032289

Vibrational entropy computed according to the QRRHO of S. Grimme
Chem.Eur.J. 2012 18 9955 using a reference frequency of 100.0 cm-1

-------
ENTROPY
-------

The entropy contributions are T*S = T*(S(el)+S(vib)+S(rot)+S(trans))
     S(el)   - electronic entropy
     S(vib)  - vibrational entropy
     S(rot)  - rotational entropy
     S(trans)- translational entropy
The entropies will be listed as multiplied by the temperature to get
units of energy

Electronic entropy                ...      0.00000000 Eh      0.00 kcal/mol
Vibrational entropy               ...      0.01530855 Eh      9.61 kcal/mol
Rotational entropy                ...      0.01393354 Eh      8.74 kcal/mol
Translational entropy             ...      0.01912974 Eh     12.00 kcal/mol
-----------------------------------------------------------------------
Final entropy term                ...      0.04837184 Eh     30.35 kcal/mol

In case the symmetry of your molecule has not been determined correctly
or in case you have a reason to use a different symmetry number we print
out the resulting rotational entropy values for sn=1,12:

 non-linear molecules -----------------------------------
|  sn= 1 | S(rot)=       0.01393354 Eh      8.74 kcal/mol|
|  sn= 2 | S(rot)=       0.01327909 Eh      8.33 kcal/mol|
|  sn= 3 | S(rot)=       0.01289626 Eh      8.09 kcal/mol|
|  sn= 4 | S(rot)=       0.01262463 Eh      7.92 kcal/mol|
|  sn= 5 | S(rot)=       0.01241394 Eh      7.79 kcal/mol|
|  sn= 6 | S(rot)=       0.01224180 Eh      7.68 kcal/mol|
|  sn= 7 | S(rot)=       0.01209625 Eh      7.59 kcal/mol|
|  sn= 8 | S(rot)=       0.01197017 Eh      7.51 kcal/mol|
|  sn= 9 | S(rot)=       0.01185897 Eh      7.44 kcal/mol|
|  sn=10 | S(rot)=       0.01175949 Eh      7.38 kcal/mol|
|  sn=11 | S(rot)=       0.01166950 Eh      7.32 kcal/mol|
|  sn=12 | S(rot)=       0.01158734 Eh      7.27 kcal/mol|
 linear molecules ---------------------------------------
|  Dinfh | S(rot)=       0.00856722 Eh      5.38 kcal/mol|
|  Cinfv | S(rot)=       0.00922167 Eh      5.79 kcal/mol|
 --------------------------------------------------------

                             ****ORCA TERMINATED NORMALLY****
TOTAL RUN TIME: 0 days 0 hours 38 minutes 2 seconds 777 msec
