                         Program Version 6.1.0  -  RELEASE   -
|  1> # Geometry optimization for (AlH3)n cluster
|  2>
|  3> %pal nprocs 24  end
|  4>
|  5> %geom MaxIter 500 end
|  6>
|  7>
|  8> ! PBE def2-TZVP
|  9> ! RKS	# closed shell for AlH3
| 10> ! D3    #  dispersion correction
| 11> ! Freq 	# Frequency analysis to check the stabiltity of the structures
| 12>
| 13> ! NoPop # population analysis not necessary
| 14>
| 15> ! DEFGRID3
| 16> ! TightSCF
| 17> ! TightOpt
| 18>
| 19> ! SmallPrint
| 20>
| 21>
| 22> * xyzFile 0 1 start.xyz # only maingroup elements H and Al so there should be no net spin
| 23>
| 24>                          ****END OF INPUT****
 Total Charge           Charge          ....    0
 Multiplicity           Mult            ....    1
 Number of Electrons    NEL             ....   80
Dispersion correction           -0.018886165
FINAL SINGLE POINT ENERGY     -1220.441601700506
Dispersion correction             ... done (  0.1 sec)
Dispersion correction           -0.018919570
FINAL SINGLE POINT ENERGY     -1220.441655185431
Dispersion correction             ... done (  0.1 sec)
Dispersion correction           -0.019090570
FINAL SINGLE POINT ENERGY     -1220.441792924740
Dispersion correction             ... done (  0.1 sec)
FINAL SINGLE POINT ENERGY     -1220.441819330625
FINAL SINGLE POINT ENERGY     -1220.441945959586
FINAL SINGLE POINT ENERGY     -1220.441986494100
FINAL SINGLE POINT ENERGY     -1220.442030963691
FINAL SINGLE POINT ENERGY     -1220.442066471435
FINAL SINGLE POINT ENERGY     -1220.442110214100
FINAL SINGLE POINT ENERGY     -1220.442139323774
FINAL SINGLE POINT ENERGY     -1220.442272490601
FINAL SINGLE POINT ENERGY     -1220.442274032068
FINAL SINGLE POINT ENERGY     -1220.442275255897
FINAL SINGLE POINT ENERGY     -1220.442276288304
FINAL SINGLE POINT ENERGY     -1220.442277141649
FINAL SINGLE POINT ENERGY     -1220.442277879272
FINAL SINGLE POINT ENERGY     -1220.442278650795
Dispersion correction             ... done (  0.1 sec)
Dispersion correction           -0.019644777
FINAL SINGLE POINT ENERGY     -1220.442279295886
Dispersion correction             ... done (  0.1 sec)
Dispersion correction           -0.019645691
FINAL SINGLE POINT ENERGY     -1220.442279645671
Dispersion correction             ... done (  0.1 sec)
                    ***********************HURRAY********************

CARTESIAN COORDINATES (ANGSTROEM)
---------------------------------
  Al    -0.533703    1.012165    2.872789
  Al     0.115813   -0.473201    0.454857
  H     -0.462837   -2.097210    0.329290
  H     -0.143936    0.215410   -0.946532
  H     -1.080482   -0.030243    1.592941
  H     -1.863157    1.341655    3.678215
  H      0.374447   -0.093682    3.756789
  H      1.481527   -0.606361    1.275182
  Al     0.065712   -3.302633    1.446259
  H     -0.065927   -2.214099    2.765206
  H     -1.149052   -4.308919    1.611566
  H      0.433944    2.044283    2.136206
  Al     1.179101   -1.680062    3.790131
  H      0.474277   -1.792909    5.367020
  H      2.684026   -1.270498    3.562291
  H      1.596553   -3.630994    1.187418
  Al     0.710132   -3.513849    5.648246
  H      1.785766   -3.637643    6.809432
  H      1.453340   -3.495903    4.122595
  H     -0.729334   -4.180326    5.550089

 Multiplicity           Mult            ....    1
 Number of Electrons    NEL             ....   80
 Basis Dimension        Dim             ....  275

ORBITAL ENERGIES
----------------

  NO   OCC          E(Eh)            E(eV)
   0   2.0000     -55.406223     -1507.6800
   1   2.0000     -55.387320     -1507.1656
   2   2.0000     -55.386828     -1507.1522
   3   2.0000     -55.378512     -1506.9259
   4   2.0000     -55.368159     -1506.6442
   5   2.0000      -3.963167      -107.8433
   6   2.0000      -3.947893      -107.4276
   7   2.0000      -3.947275      -107.4108
   8   2.0000      -3.939182      -107.1906
   9   2.0000      -3.929848      -106.9366
  10   2.0000      -2.567246       -69.8583
  11   2.0000      -2.566197       -69.8298
  12   2.0000      -2.561683       -69.7069
  13   2.0000      -2.552773       -69.4645
  14   2.0000      -2.552712       -69.4628
  15   2.0000      -2.550772       -69.4100
  16   2.0000      -2.549998       -69.3890
  17   2.0000      -2.545499       -69.2666
  18   2.0000      -2.544463       -69.2383
  19   2.0000      -2.544279       -69.2333
  20   2.0000      -2.541818       -69.1664
  21   2.0000      -2.536795       -69.0297
  22   2.0000      -2.535536       -68.9954
  23   2.0000      -2.531863       -68.8955
  24   2.0000      -2.527456       -68.7756
  25   2.0000      -0.502305       -13.6684
  26   2.0000      -0.459970       -12.5164
  27   2.0000      -0.429789       -11.6951
  28   2.0000      -0.394155       -10.7255
  29   2.0000      -0.352368        -9.5884
  30   2.0000      -0.344839        -9.3836
  31   2.0000      -0.322377        -8.7723
  32   2.0000      -0.313522        -8.5314
  33   2.0000      -0.302370        -8.2279
  34   2.0000      -0.298276        -8.1165
  35   2.0000      -0.290126        -7.8947
  36   2.0000      -0.281737        -7.6665
  37   2.0000      -0.274758        -7.4765
  38   2.0000      -0.272713        -7.4209
  39   2.0000      -0.266834        -7.2609
  40   0.0000      -0.076762        -2.0888
  41   0.0000      -0.065220        -1.7747
  42   0.0000      -0.059120        -1.6087
  43   0.0000      -0.048245        -1.3128
  44   0.0000      -0.038786        -1.0554

-------
TIMINGS
-------

Dispersion correction           -0.019646417
FINAL SINGLE POINT ENERGY     -1220.442279799312

DIPOLE MOMENT
-------------

Method             : SCF
Type of density    : Electron Density
Multiplicity       :   1
Irrep              :   0
Energy             : -1220.4226333823589812 Eh
Basis              : AO
                                X                 Y                 Z
Electronic contribution:     -0.377848655      -0.126037922      -0.386086982
Nuclear contribution   :      0.155562857       0.100772077       0.140592104
                        -----------------------------------------
Total Dipole Moment    :     -0.222285798      -0.025265845      -0.245494878
                        -----------------------------------------
Magnitude (a.u.)       :      0.332140142
Magnitude (Debye)      :      0.844233149

VIBRATIONAL FREQUENCIES
-----------------------

Scaling factor for frequencies =  1.000000000  (already applied!)

     0:       0.00 cm**-1
     1:       0.00 cm**-1
     2:       0.00 cm**-1
     3:       0.00 cm**-1
     4:       0.00 cm**-1
     5:       0.00 cm**-1
     6:      41.72 cm**-1
     7:      46.33 cm**-1
     8:      73.08 cm**-1
     9:      90.54 cm**-1
    10:     114.72 cm**-1
    11:     128.28 cm**-1
    12:     189.62 cm**-1
    13:     203.11 cm**-1
    14:     211.79 cm**-1
    15:     238.65 cm**-1
    16:     290.93 cm**-1
    17:     307.19 cm**-1
    18:     339.96 cm**-1
    19:     348.20 cm**-1
    20:     373.84 cm**-1
    21:     393.43 cm**-1
    22:     433.26 cm**-1
    23:     435.62 cm**-1
    24:     479.27 cm**-1
    25:     502.99 cm**-1
    26:     531.39 cm**-1
    27:     549.31 cm**-1
    28:     569.62 cm**-1
    29:     652.42 cm**-1
    30:     669.08 cm**-1
    31:     676.15 cm**-1
    32:     688.21 cm**-1
    33:     700.20 cm**-1
    34:     721.81 cm**-1
    35:     733.95 cm**-1
    36:     739.49 cm**-1
    37:     758.33 cm**-1
    38:     827.79 cm**-1
    39:     847.06 cm**-1
    40:    1054.55 cm**-1
    41:    1101.27 cm**-1
    42:    1139.90 cm**-1
    43:    1190.65 cm**-1
    44:    1376.04 cm**-1
    45:    1429.34 cm**-1
    46:    1568.08 cm**-1
    47:    1617.00 cm**-1
    48:    1687.87 cm**-1
    49:    1757.26 cm**-1
    50:    1844.09 cm**-1
    51:    1862.75 cm**-1
    52:    1879.37 cm**-1
    53:    1891.10 cm**-1
    54:    1900.58 cm**-1
    55:    1903.00 cm**-1
    56:    1909.95 cm**-1
    57:    1918.78 cm**-1
    58:    1923.36 cm**-1
    59:    1941.55 cm**-1

IR SPECTRUM
-----------

 Mode   freq       eps      Int      T**2         TX        TY        TZ
       cm**-1   L/(mol*cm) km/mol    a.u.
----------------------------------------------------------------------------
  6:     41.72   0.000477    2.41  0.003568  ( 0.028087 -0.039581  0.034813)
  7:     46.33   0.000073    0.37  0.000492  (-0.014801 -0.000377 -0.016519)
  8:     73.08   0.000241    1.22  0.001031  (-0.023215  0.020226  0.009107)
  9:     90.54   0.001004    5.08  0.003462  (-0.009191  0.049865 -0.029847)
 10:    114.72   0.001486    7.51  0.004043  ( 0.025844  0.000483  0.058095)
 11:    128.28   0.000352    1.78  0.000857  (-0.008766 -0.022412 -0.016661)
 12:    189.62   0.000095    0.48  0.000156  ( 0.006659  0.002611 -0.010256)
 13:    203.11   0.000697    3.52  0.001071  (-0.015369  0.018797 -0.021939)
 14:    211.79   0.000808    4.08  0.001191  (-0.005052  0.020966  0.026939)
 15:    238.65   0.000129    0.65  0.000169  (-0.008137  0.001303 -0.010036)
 16:    290.93   0.004068   20.56  0.004364  (-0.012907  0.009879 -0.064028)
 17:    307.19   0.000916    4.63  0.000930  ( 0.025469  0.015565  0.006282)
 18:    339.96   0.001940    9.81  0.001781  ( 0.018009 -0.034999  0.015232)
 19:    348.20   0.002397   12.11  0.002148  (-0.010647 -0.019524  0.040666)
 20:    373.84   0.006887   34.80  0.005749  ( 0.047588 -0.031945  0.049633)
 21:    393.43   0.002331   11.78  0.001849  (-0.018697  0.032553 -0.020974)
 22:    433.26   0.000625    3.16  0.000450  ( 0.003222  0.009349  0.018771)
 23:    435.62   0.000228    1.15  0.000163  ( 0.004198  0.011801 -0.002551)
 24:    479.27   0.001821    9.20  0.001186  ( 0.020465  0.021285  0.017712)
 25:    502.99   0.020953  105.89  0.013000  (-0.014833 -0.015251  0.112013)
 26:    531.39   0.026423  133.53  0.015517  (-0.016966 -0.098576 -0.074245)
 27:    549.31   0.007388   37.34  0.004197  ( 0.025287 -0.004963  0.059440)
 28:    569.62   0.043240  218.52  0.023689  (-0.064200  0.135550 -0.034546)
 29:    652.42   0.122342  618.26  0.058518  (-0.015748  0.164397 -0.176759)
 30:    669.08   0.054051  273.15  0.025210  (-0.007738  0.129234 -0.091915)
 31:    676.15   0.097548  492.97  0.045021  (-0.026104  0.166701  0.128647)
 32:    688.21   0.045882  231.87  0.020805  ( 0.061800 -0.103896 -0.078685)
 33:    700.20   0.027379  138.36  0.012202  (-0.035241 -0.082998  0.063810)
 34:    721.81   0.020237  102.27  0.008749  ( 0.089925 -0.021217  0.014584)
 35:    733.95   0.036094  182.40  0.015346  (-0.042760 -0.060010  0.099583)
 36:    739.49   0.025295  127.83  0.010675  (-0.017306 -0.086258 -0.054172)
 37:    758.33   0.037369  188.85  0.015378  (-0.026534  0.043445 -0.113077)
 38:    827.79   0.019981  100.98  0.007533  (-0.077800 -0.028213 -0.026153)
 39:    847.06   0.028702  145.05  0.010574  ( 0.028310  0.034858  0.092507)
 40:   1054.55   0.050154  253.46  0.014842  ( 0.065997 -0.095386  0.037251)
 41:   1101.27   0.030762  155.46  0.008717  (-0.003118  0.093217 -0.004214)
 42:   1139.90   0.019061   96.32  0.005218  ( 0.030062  0.016928  0.063465)
 43:   1190.65   0.021208  107.18  0.005559  ( 0.064053  0.027411  0.026542)
 44:   1376.04   0.026720  135.03  0.006060  (-0.032283  0.067983  0.019897)
 45:   1429.34   0.154437  780.46  0.033718  ( 0.002269 -0.113930  0.143987)
 46:   1568.08   0.069799  352.74  0.013891  (-0.011512 -0.059362  0.101165)
 47:   1617.00   0.066146  334.28  0.012766  (-0.020323  0.104789  0.037037)
 48:   1687.87   0.072767  367.73  0.013454  ( 0.016085  0.047062 -0.104785)
 49:   1757.26   0.203966  1030.76  0.036221  ( 0.025757 -0.176689 -0.065871)
 50:   1844.09   0.057708  291.63  0.009765  ( 0.057392 -0.054145  0.059498)
 51:   1862.75   0.053999  272.89  0.009046  ( 0.051582 -0.038643  0.069946)
 52:   1879.37   0.020728  104.75  0.003442  (-0.057196  0.000363 -0.013051)
 53:   1891.10   0.011667   58.96  0.001925  (-0.029267 -0.026261  0.019471)
 54:   1900.58   0.019789  100.01  0.003249  (-0.046709  0.013052  0.029953)
 55:   1903.00   0.012143   61.36  0.001991  ( 0.001381 -0.029774  0.033209)
 56:   1909.95   0.030882  156.06  0.005046  ( 0.053259  0.000556  0.046999)
 57:   1918.78   0.032743  165.47  0.005325  (-0.067915 -0.022017  0.015104)
 58:   1923.36   0.028839  145.74  0.004679  (-0.029575  0.021623 -0.057766)
 59:   1941.55   0.017329   87.57  0.002785  (-0.037273 -0.034685  0.013891)

--------------------------
THERMOCHEMISTRY AT 298.15K
--------------------------

Temperature         ...   298.15 K
Pressure            ...     1.00 atm
Total Mass          ...   150.03 AMU
Quasi RRHO          ...     True
Cut-Off Frequency   ...     1.00 cm^-1

Throughout the following assumptions are being made:
  (1) The electronic state is orbitally nondegenerate
  (2) There are no thermally accessible electronically excited states
  (3) Hindered rotations indicated by low frequency modes are not
      treated as such but are treated as vibrations and this may
      cause some error
  (4) All equations used are the standard statistical mechanics
      equations for an ideal gas
  (5) All vibrations are strictly harmonic

freq.      41.72  E(vib)   ...       0.53
freq.      46.33  E(vib)   ...       0.53
freq.      73.08  E(vib)   ...       0.49
freq.      90.54  E(vib)   ...       0.47
freq.     114.72  E(vib)   ...       0.44
freq.     128.28  E(vib)   ...       0.43
freq.     189.62  E(vib)   ...       0.36
freq.     203.11  E(vib)   ...       0.35
freq.     211.79  E(vib)   ...       0.34
freq.     238.65  E(vib)   ...       0.32
freq.     290.93  E(vib)   ...       0.27
freq.     307.19  E(vib)   ...       0.26
freq.     339.96  E(vib)   ...       0.23
freq.     348.20  E(vib)   ...       0.23
freq.     373.84  E(vib)   ...       0.21
freq.     393.43  E(vib)   ...       0.20
freq.     433.26  E(vib)   ...       0.17
freq.     435.62  E(vib)   ...       0.17
freq.     479.27  E(vib)   ...       0.15
freq.     502.99  E(vib)   ...       0.14
freq.     531.39  E(vib)   ...       0.13
freq.     549.31  E(vib)   ...       0.12
freq.     569.62  E(vib)   ...       0.11
freq.     652.42  E(vib)   ...       0.08
freq.     669.08  E(vib)   ...       0.08
freq.     676.15  E(vib)   ...       0.08
freq.     688.21  E(vib)   ...       0.07
freq.     700.20  E(vib)   ...       0.07
freq.     721.81  E(vib)   ...       0.07
freq.     733.95  E(vib)   ...       0.06
freq.     739.49  E(vib)   ...       0.06
freq.     758.33  E(vib)   ...       0.06
freq.     827.79  E(vib)   ...       0.04
freq.     847.06  E(vib)   ...       0.04
freq.    1054.55  E(vib)   ...       0.02
freq.    1101.27  E(vib)   ...       0.02
freq.    1139.90  E(vib)   ...       0.01
freq.    1190.65  E(vib)   ...       0.01
freq.    1376.04  E(vib)   ...       0.01
freq.    1429.34  E(vib)   ...       0.00
freq.    1568.08  E(vib)   ...       0.00
freq.    1617.00  E(vib)   ...       0.00
freq.    1687.87  E(vib)   ...       0.00
freq.    1757.26  E(vib)   ...       0.00
freq.    1844.09  E(vib)   ...       0.00
freq.    1862.75  E(vib)   ...       0.00
freq.    1879.37  E(vib)   ...       0.00
freq.    1891.10  E(vib)   ...       0.00
freq.    1900.58  E(vib)   ...       0.00
freq.    1903.00  E(vib)   ...       0.00
freq.    1909.95  E(vib)   ...       0.00
freq.    1918.78  E(vib)   ...       0.00
freq.    1923.36  E(vib)   ...       0.00
freq.    1941.55  E(vib)   ...       0.00

------------
INNER ENERGY
------------

The inner energy is: U= E(el) + E(ZPE) + E(vib) + E(rot) + E(trans)
    E(el)   - is the total energy from the electronic structure calculation
              = E(kin-el) + E(nuc-el) + E(el-el) + E(nuc-nuc)
    E(ZPE)  - the the zero temperature vibrational energy from the frequency calculation
    E(vib)  - the the finite temperature correction to E(ZPE) due to population
              of excited vibrational states
    E(rot)  - is the rotational thermal energy
    E(trans)- is the translational thermal energy

Summary of contributions to the inner energy U:
Electronic energy                ...  -1220.44227980 Eh
Zero point energy                ...      0.10890515 Eh      68.34 kcal/mol
Thermal vibrational correction   ...      0.01188806 Eh       7.46 kcal/mol
Thermal rotational correction    ...      0.00141627 Eh       0.89 kcal/mol
Thermal translational correction ...      0.00141627 Eh       0.89 kcal/mol
-----------------------------------------------------------------------
Total thermal energy                  -1220.31865405 Eh

Summary of corrections to the electronic energy:
(perhaps to be used in another calculation)
Total thermal correction                  0.01472061 Eh       9.24 kcal/mol
Non-thermal (ZPE) correction              0.10890515 Eh      68.34 kcal/mol
-----------------------------------------------------------------------
Total correction                          0.12362575 Eh      77.58 kcal/mol

--------
ENTHALPY
--------

The enthalpy is H = U + kB*T
                kB is Boltzmann's constant
Total thermal energy              ...  -1220.31865405 Eh
Thermal Enthalpy correction       ...      0.00094421 Eh       0.59 kcal/mol
-----------------------------------------------------------------------
Total Enthalpy                    ...  -1220.31770984 Eh

Note: Only C1 symmetry has been detected, increase convergence thresholds
      if your molecule has a higher symmetry. Symmetry factor of 1.0 is
      used for the rotational entropy correction.

Note: Rotational entropy computed according to Herzberg
Infrared and Raman Spectra, Chapter V,1, Van Nostrand Reinhold, 1945
Point Group:  C1, Symmetry Number:   1
Rotational constants in cm-1:     0.047776     0.023301     0.017154

Vibrational entropy computed according to the QRRHO of S. Grimme
Chem.Eur.J. 2012 18 9955 using a reference frequency of 100.0 cm-1

-------
ENTROPY
-------

The entropy contributions are T*S = T*(S(el)+S(vib)+S(rot)+S(trans))
     S(el)   - electronic entropy
     S(vib)  - vibrational entropy
     S(rot)  - rotational entropy
     S(trans)- translational entropy
The entropies will be listed as multiplied by the temperature to get
units of energy

Electronic entropy                ...      0.00000000 Eh      0.00 kcal/mol
Vibrational entropy               ...      0.02068027 Eh     12.98 kcal/mol
Rotational entropy                ...      0.01464055 Eh      9.19 kcal/mol
Translational entropy             ...      0.01944577 Eh     12.20 kcal/mol
-----------------------------------------------------------------------
Final entropy term                ...      0.05476659 Eh     34.37 kcal/mol

In case the symmetry of your molecule has not been determined correctly
or in case you have a reason to use a different symmetry number we print
out the resulting rotational entropy values for sn=1,12:

 non-linear molecules -----------------------------------
|  sn= 1 | S(rot)=       0.01464055 Eh      9.19 kcal/mol|
|  sn= 2 | S(rot)=       0.01398609 Eh      8.78 kcal/mol|
|  sn= 3 | S(rot)=       0.01360326 Eh      8.54 kcal/mol|
|  sn= 4 | S(rot)=       0.01333164 Eh      8.37 kcal/mol|
|  sn= 5 | S(rot)=       0.01312095 Eh      8.23 kcal/mol|
|  sn= 6 | S(rot)=       0.01294880 Eh      8.13 kcal/mol|

                             ****ORCA TERMINATED NORMALLY****
TOTAL RUN TIME: 0 days 0 hours 14 minutes 18 seconds 925 msec
