                         Program Version 6.1.0  -  RELEASE   -
|  1> # Geometry optimization for (AlH3)n cluster
|  2>
|  3> %pal nprocs 24  end
|  4>
|  5> %geom MaxIter 500 end
|  6>
|  7>
|  8> ! PBE def2-SV(P)
|  9> ! RKS	# closed shell for AlH3
| 10> ! D3    #  dispersion correction
| 11> ! gCP(DFT/SV(P))
| 12>
| 13> ! NoPop # population analysis not necessary
| 14>
| 15> ! DEFGRID3
| 16> ! TightSCF
| 17> ! NormalOpt
| 18>
| 19> ! SmallPrint
| 20>
| 21>
| 22> * xyzFile 0 1 start.xyz # only maingroup elements H and Al so there should be no net spin
| 23>
| 24>                          ****END OF INPUT****
 Total Charge           Charge          ....    0
 Multiplicity           Mult            ....    1
 Number of Electrons    NEL             ....  428
Dispersion correction           -0.143186616
FINAL SINGLE POINT ENERGY     -3488.535740187868
Dispersion correction             ... done (  0.2 sec)
Dispersion correction           -0.142414052
FINAL SINGLE POINT ENERGY     -3488.536787202081
Dispersion correction             ... done (  0.1 sec)
Dispersion correction           -0.141357511
FINAL SINGLE POINT ENERGY     -3488.538001526378
Dispersion correction             ... done (  0.1 sec)
FINAL SINGLE POINT ENERGY     -3488.539133928276
FINAL SINGLE POINT ENERGY     -3488.540061205854
FINAL SINGLE POINT ENERGY     -3488.540939353993
FINAL SINGLE POINT ENERGY     -3488.541371753619
FINAL SINGLE POINT ENERGY     -3488.541648154198
FINAL SINGLE POINT ENERGY     -3488.542091852154
FINAL SINGLE POINT ENERGY     -3488.542311765356
FINAL SINGLE POINT ENERGY     -3488.547097558574
FINAL SINGLE POINT ENERGY     -3488.547102692846
FINAL SINGLE POINT ENERGY     -3488.547107033972
FINAL SINGLE POINT ENERGY     -3488.547111076132
FINAL SINGLE POINT ENERGY     -3488.547115081500
FINAL SINGLE POINT ENERGY     -3488.547118830906
FINAL SINGLE POINT ENERGY     -3488.547122249372
Dispersion correction             ... done (  0.1 sec)
Dispersion correction           -0.142545635
FINAL SINGLE POINT ENERGY     -3488.547125078675
Dispersion correction             ... done (  0.1 sec)
Dispersion correction           -0.142548936
FINAL SINGLE POINT ENERGY     -3488.547127354807
Dispersion correction             ... done (  0.1 sec)
                    ***********************HURRAY********************

CARTESIAN COORDINATES (ANGSTROEM)
---------------------------------
  Zr    -0.018912    2.036093    1.299328
  Zr    -0.077844   -2.420864   -1.162149
  Zr     1.483266   -1.394714    1.765731
  Zr    -1.527396    1.002837   -1.639462
  Zr     1.906688    0.445026   -1.455732
  Zr    -1.940652   -0.808847    1.653425
  O     -1.656436    0.852773    0.442065
  O      1.669026   -1.227106   -0.276147
  O     -0.435840   -1.995451    0.832125
  O      0.389185    1.697002   -0.730353
  O     -0.082441   -0.468054   -1.876300
  O      0.054161    0.099056    2.072313
  O     -1.413221    2.469500    2.976522
  O     -1.228669    3.775304    0.597211
  O      1.519045    2.103512    2.970736
  O      1.641981    3.535968    0.798240
  O     -1.746484   -3.834549   -0.561375
  O     -1.663117   -2.398458   -2.725839
  O      1.093834   -4.173367   -0.442251
  O      1.289267   -2.881858   -2.833714
  O      0.648287   -2.285683    3.631639
  O      2.501582    0.057220    3.099184
  O      1.924348   -3.574791    1.581466
  O      3.776831   -1.476440    1.388287
  O     -3.658737    0.472639   -1.220167
  O     -2.200086    3.101296   -1.338417
  O     -2.315511   -0.301783   -3.323847
  O     -0.721334    2.049538   -3.419042
  O      1.498085    1.588839   -3.337670
  O      2.918353    1.868199   -0.039174
  O      2.566825   -1.023920   -3.041969
  O      4.215914   -0.450186   -0.584089
  O     -4.014110   -0.263518    0.904420
  O     -2.616988    0.570881    3.270020
  O     -2.979471   -2.654683    0.944637
  O     -1.593435   -1.964786    3.527284
  C     -2.281171    1.756786    3.568119
  C     -1.958775    3.949620   -0.424204
  C      2.230212    1.223035    3.535041
  C      2.693764    3.094874    0.266840
  C     -2.658186   -3.710296    0.306219
  C     -2.174802   -1.541726   -3.521501
  C      1.710482   -4.400687    0.642591
  C      2.205221   -2.189562   -3.380230
  C     -0.534158   -2.395163    4.078144
  C      4.540191   -1.146366    0.454424
  C     -4.376587    0.261381   -0.187286
  C      0.469213    2.122859   -3.851493
  H     -2.558266   -1.945118   -4.503533
  H      2.111687   -5.444819    0.786397
  H      2.695502    1.504039    4.524279
  H     -2.446299    4.960727   -0.531770
  H      2.751794   -2.659320   -4.246619
  H      0.628262    2.725027   -4.791632
  H      3.519022    3.832097    0.045650
  H      5.618600   -1.474950    0.515564
  H     -3.270055   -4.632078    0.530577
  H     -5.462043    0.562011   -0.266353
  H     -2.807126    2.227291    4.447498
  H     -0.656663   -2.928847    5.063958
  Al     6.129161   -0.939970   -4.218300
  Al     5.207476    0.378433   -2.054104
  H      5.653933    0.667868   -3.899557
  H      3.781457    1.161851   -2.409078
  H      5.691992   -1.283304   -2.550142
  H      7.739408   -1.056458   -4.304980
  H      5.091037   -1.732686   -5.176277
  H      6.448899    1.152982   -1.368819

 Multiplicity           Mult            ....    1
 Number of Electrons    NEL             ....  428
 Basis Dimension        Dim             ....  804

ORBITAL ENERGIES
----------------

  NO   OCC          E(Eh)            E(eV)
   0   2.0000     -55.392850     -1507.3161
   1   2.0000     -55.354072     -1506.2609
   2   2.0000     -18.808775      -511.8128
   3   2.0000     -18.796606      -511.4817
   4   2.0000     -18.796067      -511.4670
   5   2.0000     -18.796002      -511.4652
   6   2.0000     -18.794989      -511.4377
   7   2.0000     -18.794537      -511.4254
   8   2.0000     -18.794152      -511.4149
   9   2.0000     -18.793890      -511.4077
  10   2.0000     -18.793060      -511.3852
  11   2.0000     -18.793038      -511.3846
  12   2.0000     -18.793023      -511.3842
  13   2.0000     -18.792889      -511.3805
  14   2.0000     -18.792827      -511.3788
  15   2.0000     -18.792411      -511.3675
  16   2.0000     -18.792335      -511.3654
  17   2.0000     -18.792006      -511.3565
  18   2.0000     -18.791486      -511.3423
  19   2.0000     -18.790416      -511.3132
  20   2.0000     -18.789488      -511.2880
  21   2.0000     -18.789200      -511.2801
  22   2.0000     -18.789084      -511.2770
  23   2.0000     -18.788930      -511.2728
  24   2.0000     -18.788544      -511.2623
  25   2.0000     -18.788383      -511.2579
  26   2.0000     -18.764308      -510.6028
  27   2.0000     -18.762985      -510.5668
  28   2.0000     -18.762839      -510.5628
  29   2.0000     -18.762767      -510.5608
  30   2.0000     -18.760320      -510.4943
  31   2.0000     -18.760282      -510.4932
  32   2.0000     -10.052543      -273.5436
  33   2.0000     -10.046507      -273.3794
  34   2.0000     -10.045053      -273.3398
  35   2.0000     -10.043346      -273.2933
  36   2.0000     -10.043165      -273.2884
  37   2.0000     -10.043091      -273.2864
  38   2.0000     -10.042902      -273.2813
  39   2.0000     -10.041507      -273.2433
  40   2.0000     -10.041489      -273.2428
  41   2.0000     -10.039373      -273.1852
  42   2.0000     -10.039003      -273.1751
  43   2.0000     -10.038786      -273.1693
  44   2.0000      -3.940816      -107.2351
  45   2.0000      -3.912361      -106.4608
  46   2.0000      -2.548630       -69.3518
  47   2.0000      -2.546862       -69.3036
  48   2.0000      -2.543935       -69.2240
  49   2.0000      -2.521317       -68.6085
  50   2.0000      -2.517597       -68.5073
  51   2.0000      -2.514185       -68.4145
  52   2.0000      -2.057042       -55.9750
  53   2.0000      -2.056748       -55.9670
  54   2.0000      -2.055890       -55.9436
  55   2.0000      -2.055689       -55.9381
  56   2.0000      -2.055277       -55.9269
  57   2.0000      -2.053727       -55.8848
  58   2.0000      -1.239198       -33.7203
  59   2.0000      -1.236305       -33.6416
  60   2.0000      -1.235026       -33.6068
  61   2.0000      -1.234130       -33.5824
  62   2.0000      -1.233127       -33.5551
  63   2.0000      -1.232597       -33.5407
  64   2.0000      -1.230253       -33.4769
  65   2.0000      -1.229189       -33.4479
  66   2.0000      -1.228971       -33.4420
  67   2.0000      -1.228173       -33.4203
  68   2.0000      -1.227785       -33.4097
  69   2.0000      -1.226798       -33.3829
  70   2.0000      -1.225426       -33.3455
  71   2.0000      -1.224961       -33.3329
  72   2.0000      -1.223939       -33.3051
  73   2.0000      -1.223371       -33.2896
  74   2.0000      -1.223157       -33.2838
  75   2.0000      -1.222243       -33.2589
  76   2.0000      -1.009021       -27.4569
  77   2.0000      -1.003949       -27.3188
  78   2.0000      -1.002967       -27.2921
  79   2.0000      -1.001435       -27.2504
  80   2.0000      -1.000779       -27.2326
  81   2.0000      -0.999995       -27.2113
  82   2.0000      -0.999752       -27.2046
  83   2.0000      -0.998502       -27.1706
  84   2.0000      -0.997340       -27.1390
  85   2.0000      -0.995601       -27.0917
  86   2.0000      -0.993607       -27.0374
  87   2.0000      -0.993244       -27.0276
  88   2.0000      -0.932018       -25.3615
  89   2.0000      -0.922696       -25.1078
  90   2.0000      -0.921595       -25.0779
  91   2.0000      -0.920177       -25.0393
  92   2.0000      -0.919580       -25.0231
  93   2.0000      -0.919263       -25.0144
  94   2.0000      -0.918483       -24.9932
  95   2.0000      -0.917357       -24.9625
  96   2.0000      -0.916747       -24.9460
  97   2.0000      -0.915840       -24.9213
  98   2.0000      -0.915199       -24.9038
  99   2.0000      -0.912541       -24.8315
 100   2.0000      -0.833126       -22.6705
 101   2.0000      -0.824744       -22.4424
 102   2.0000      -0.823492       -22.4083
 103   2.0000      -0.815238       -22.1838
 104   2.0000      -0.812911       -22.1204
 105   2.0000      -0.811003       -22.0685
 106   2.0000      -0.573248       -15.5989
 107   2.0000      -0.564200       -15.3527
 108   2.0000      -0.561931       -15.2909
 109   2.0000      -0.561176       -15.2704
 110   2.0000      -0.559683       -15.2298
 111   2.0000      -0.558116       -15.1871
 112   2.0000      -0.557682       -15.1753
 113   2.0000      -0.556214       -15.1354
 114   2.0000      -0.554674       -15.0935
 115   2.0000      -0.552695       -15.0396
 116   2.0000      -0.550564       -14.9816
 117   2.0000      -0.550470       -14.9791
 118   2.0000      -0.509197       -13.8560
 119   2.0000      -0.478263       -13.0142
 120   2.0000      -0.476311       -12.9611
 121   2.0000      -0.475440       -12.9374
 122   2.0000      -0.474264       -12.9054
 123   2.0000      -0.472949       -12.8696
 124   2.0000      -0.471572       -12.8321
 125   2.0000      -0.470758       -12.8100
 126   2.0000      -0.469265       -12.7693
 127   2.0000      -0.468897       -12.7593
 128   2.0000      -0.467558       -12.7229
 129   2.0000      -0.465908       -12.6780
 130   2.0000      -0.463696       -12.6178
 131   2.0000      -0.463315       -12.6074
 132   2.0000      -0.461221       -12.5505
 133   2.0000      -0.461034       -12.5454
 134   2.0000      -0.460206       -12.5228
 135   2.0000      -0.459833       -12.5127
 136   2.0000      -0.457550       -12.4506
 137   2.0000      -0.450699       -12.2642
 138   2.0000      -0.448461       -12.2032
 139   2.0000      -0.447747       -12.1838
 140   2.0000      -0.446790       -12.1578
 141   2.0000      -0.446094       -12.1388
 142   2.0000      -0.431478       -11.7411
 143   2.0000      -0.426108       -11.5950
 144   2.0000      -0.425675       -11.5832
 145   2.0000      -0.423562       -11.5257
 146   2.0000      -0.421378       -11.4663
 147   2.0000      -0.415108       -11.2957
 148   2.0000      -0.413264       -11.2455
 149   2.0000      -0.412057       -11.2126
 150   2.0000      -0.410660       -11.1746
 151   2.0000      -0.408843       -11.1252
 152   2.0000      -0.405607       -11.0371
 153   2.0000      -0.404592       -11.0095
 154   2.0000      -0.404195       -10.9987
 155   2.0000      -0.375608       -10.2208
 156   2.0000      -0.373357       -10.1596
 157   2.0000      -0.370265       -10.0754
 158   2.0000      -0.369514       -10.0550
 159   2.0000      -0.363393        -9.8884
 160   2.0000      -0.361933        -9.8487
 161   2.0000      -0.360845        -9.8191
 162   2.0000      -0.341356        -9.2888
 163   2.0000      -0.338558        -9.2126
 164   2.0000      -0.335999        -9.1430
 165   2.0000      -0.335626        -9.1328
 166   2.0000      -0.333136        -9.0651
 167   2.0000      -0.330334        -8.9888
 168   2.0000      -0.325683        -8.8623
 169   2.0000      -0.323269        -8.7966
 170   2.0000      -0.322527        -8.7764
 171   2.0000      -0.315537        -8.5862
 172   2.0000      -0.315204        -8.5771
 173   2.0000      -0.313683        -8.5358
 174   2.0000      -0.310042        -8.4367
 175   2.0000      -0.305818        -8.3217
 176   2.0000      -0.305035        -8.3004
 177   2.0000      -0.304428        -8.2839
 178   2.0000      -0.301944        -8.2163
 179   2.0000      -0.300967        -8.1897
 180   2.0000      -0.300260        -8.1705
 181   2.0000      -0.296437        -8.0665
 182   2.0000      -0.294755        -8.0207
 183   2.0000      -0.292350        -7.9552
 184   2.0000      -0.291977        -7.9451
 185   2.0000      -0.289700        -7.8831
 186   2.0000      -0.289487        -7.8773
 187   2.0000      -0.288207        -7.8425
 188   2.0000      -0.287935        -7.8351
 189   2.0000      -0.286877        -7.8063
 190   2.0000      -0.286535        -7.7970
 191   2.0000      -0.285729        -7.7751
 192   2.0000      -0.284049        -7.7294
 193   2.0000      -0.283703        -7.7200
 194   2.0000      -0.280612        -7.6359
 195   2.0000      -0.280113        -7.6223
 196   2.0000      -0.278861        -7.5882
 197   2.0000      -0.277340        -7.5468
 198   2.0000      -0.276841        -7.5332
 199   2.0000      -0.276111        -7.5134
 200   2.0000      -0.275853        -7.5063
 201   2.0000      -0.275344        -7.4925
 202   2.0000      -0.273686        -7.4474
 203   2.0000      -0.272603        -7.4179
 204   2.0000      -0.271789        -7.3957
 205   2.0000      -0.270715        -7.3665
 206   2.0000      -0.265407        -7.2221
 207   2.0000      -0.264882        -7.2078
 208   2.0000      -0.255849        -6.9620
 209   2.0000      -0.252016        -6.8577
 210   2.0000      -0.247570        -6.7367
 211   2.0000      -0.243488        -6.6256
 212   2.0000      -0.241705        -6.5771
 213   2.0000      -0.238711        -6.4957
 214   0.0000      -0.124106        -3.3771
 215   0.0000      -0.118035        -3.2119
 216   0.0000      -0.097582        -2.6553
 217   0.0000      -0.095566        -2.6005
 218   0.0000      -0.092463        -2.5161

-------
TIMINGS
-------

Dispersion correction           -0.142550810
FINAL SINGLE POINT ENERGY     -3488.547128975084

DIPOLE MOMENT
-------------

Method             : SCF
Type of density    : Electron Density
Multiplicity       :   1
Irrep              :   0
Energy             : -3488.7660474682725180 Eh
Basis              : AO
                                X                 Y                 Z
Electronic contribution:   -126.496236414       9.642587464      63.679904092
Nuclear contribution   :    125.182631075      -9.739880094     -62.572227849
                        -----------------------------------------
Total Dipole Moment    :     -1.313605338      -0.097292629       1.107676243
                        -----------------------------------------
Magnitude (a.u.)       :      1.721037913
Magnitude (Debye)      :      4.374530726

Rotational constants in cm-1:             0.001829             0.001460             0.001421
Rotational constants in MHz :            54.832130            43.779936            42.606005

                             ****ORCA TERMINATED NORMALLY****
TOTAL RUN TIME: 0 days 2 hours 19 minutes 59 seconds 354 msec
