                         Program Version 6.1.0  -  RELEASE   -
|  1> # Geometry optimization for (AlH3)n cluster
|  2>
|  3> %pal nprocs 24  end
|  4>
|  5> %geom MaxIter 500 end
|  6>
|  7>
|  8> ! PBE def2-SV(P)
|  9> ! RKS	# closed shell for AlH3
| 10> ! D3    #  dispersion correction
| 11> ! Freq 	# Frequency analysis to check the stabiltity of the structures
| 12>
| 13> ! NoPop # population analysis not necessary
| 14>
| 15> ! RI
| 16> ! DEFGRID2
| 17> ! NormalSCF
| 18> ! SloppyOpt
| 19>
| 20> ! SmallPrint
| 21>
| 22>
| 23> * xyzFile 0 1 start.xyz # only maingroup elements H and Al so there should be no net spin
| 24>
| 25>                          ****END OF INPUT****
 Total Charge           Charge          ....    0
 Multiplicity           Mult            ....    1
 Number of Electrons    NEL             ....   32
Dispersion correction           -0.004658859
FINAL SINGLE POINT ENERGY      -487.913364447039
Dispersion correction             ... done (  0.1 sec)
Dispersion correction           -0.004653928
FINAL SINGLE POINT ENERGY      -487.922516336512
Dispersion correction             ... done (  0.1 sec)
Dispersion correction           -0.004623171
FINAL SINGLE POINT ENERGY      -487.946134852188
Dispersion correction             ... done (  0.1 sec)
FINAL SINGLE POINT ENERGY      -487.958980922003
FINAL SINGLE POINT ENERGY      -487.972687039272
FINAL SINGLE POINT ENERGY      -487.982444534254
Dispersion correction             ... done (  0.1 sec)
Dispersion correction           -0.004439783
FINAL SINGLE POINT ENERGY      -487.984201783987
Dispersion correction             ... done (  0.1 sec)
Dispersion correction           -0.004430077
FINAL SINGLE POINT ENERGY      -487.984327016356
Dispersion correction             ... done (  0.1 sec)
                    ***********************HURRAY********************

CARTESIAN COORDINATES (ANGSTROEM)
---------------------------------
  Al     0.000067   -0.002253    2.349562
  Al    -0.000366   -0.001841   -0.280337
  H      1.159144   -0.040058    1.034468
  H     -0.064892   -1.444250   -0.960969
  H     -1.158256    0.063522    1.034753
  H      0.063697    1.422709    3.065836
  H     -0.063991   -1.445004    3.029401
  H      0.063357    1.423486   -0.995905

 Multiplicity           Mult            ....    1
 Number of Electrons    NEL             ....   32
 Basis Dimension        Dim             ....   48

ORBITAL ENERGIES
----------------

  NO   OCC          E(Eh)            E(eV)
   0   2.0000     -55.384421     -1507.0867
   1   2.0000     -55.384357     -1507.0850
   2   2.0000      -3.943577      -107.3102
   3   2.0000      -3.943576      -107.3102
   4   2.0000      -2.552965       -69.4697
   5   2.0000      -2.552904       -69.4681
   6   2.0000      -2.549513       -69.3758
   7   2.0000      -2.548936       -69.3601
   8   2.0000      -2.544497       -69.2393
   9   2.0000      -2.544465       -69.2384
  10   2.0000      -0.467347       -12.7172
  11   2.0000      -0.350220        -9.5300
  12   2.0000      -0.318060        -8.6549
  13   2.0000      -0.295178        -8.0322
  14   2.0000      -0.284177        -7.7328
  15   2.0000      -0.270497        -7.3606
  16   0.0000      -0.069374        -1.8878
  17   0.0000      -0.015582        -0.4240
  18   0.0000      -0.011043        -0.3005
  19   0.0000      -0.007409        -0.2016
  20   0.0000       0.006427         0.1749

-------
TIMINGS
-------

Dispersion correction           -0.004428839
FINAL SINGLE POINT ENERGY      -487.984343429753

DIPOLE MOMENT
-------------

Method             : SCF
Type of density    : Electron Density
Multiplicity       :   1
Irrep              :   0
Energy             :  -487.9799145909055937 Eh
Basis              : AO
                                X                 Y                 Z
Electronic contribution:      0.000262414       0.014461523       0.000150540
Nuclear contribution   :     -0.000037915      -0.006389362      -0.000077802
                        -----------------------------------------
Total Dipole Moment    :      0.000224498       0.008072161       0.000072738
                        -----------------------------------------
Magnitude (a.u.)       :      0.008075609
Magnitude (Debye)      :      0.020526568

VIBRATIONAL FREQUENCIES
-----------------------

Scaling factor for frequencies =  1.000000000  (already applied!)

     0:       0.00 cm**-1
     1:       0.00 cm**-1
     2:       0.00 cm**-1
     3:       0.00 cm**-1
     4:       0.00 cm**-1
     5:       0.00 cm**-1
     6:     191.91 cm**-1
     7:     364.56 cm**-1
     8:     405.21 cm**-1
     9:     452.21 cm**-1
    10:     471.71 cm**-1
    11:     603.42 cm**-1
    12:     672.13 cm**-1
    13:     711.50 cm**-1
    14:     719.46 cm**-1
    15:     800.24 cm**-1
    16:    1291.14 cm**-1
    17:    1388.73 cm**-1
    18:    1451.23 cm**-1
    19:    1506.45 cm**-1
    20:    1914.12 cm**-1
    21:    1919.33 cm**-1
    22:    1933.67 cm**-1
    23:    1941.02 cm**-1

IR SPECTRUM
-----------

 Mode   freq       eps      Int      T**2         TX        TY        TZ
       cm**-1   L/(mol*cm) km/mol    a.u.
----------------------------------------------------------------------------
  6:    191.91   0.002091   10.57  0.003401  (-0.002638 -0.058255 -0.000041)
  7:    364.56   0.000002    0.01  0.000002  (-0.000059 -0.001316 -0.000001)
  8:    405.21   0.000000    0.00  0.000000  (-0.000004 -0.000002 -0.000081)
  9:    452.21   0.000001    0.01  0.000001  (-0.000015  0.000006 -0.000938)
 10:    471.71   0.000000    0.00  0.000000  (-0.000036 -0.000011  0.000042)
 11:    603.42   0.042321  213.87  0.021887  ( 0.147788 -0.006728 -0.000021)
 12:    672.13   0.109533  553.53  0.050855  (-0.000031  0.000067 -0.225511)
 13:    711.50   0.000018    0.09  0.000008  (-0.000035 -0.002833 -0.000108)
 14:    719.46   0.000062    0.31  0.000027  (-0.005161  0.000407  0.000117)
 15:    800.24   0.039956  201.92  0.015581  ( 0.005476  0.124705  0.000049)
 16:   1291.14   0.060906  307.79  0.014721  ( 0.121209 -0.005397  0.000157)
 17:   1388.73   0.000000    0.00  0.000000  (-0.000009  0.000008  0.000219)
 18:   1451.23   0.193074  975.72  0.041517  (-0.000055 -0.000035  0.203758)
 19:   1506.45   0.000003    0.01  0.000001  ( 0.000025  0.000781  0.000025)
 20:   1914.12   0.024278  122.69  0.003958  ( 0.000015  0.000124  0.062914)
 21:   1919.33   0.000010    0.05  0.000002  ( 0.000049  0.001085 -0.000706)
 22:   1933.67   0.000031    0.16  0.000005  ( 0.000046  0.000864 -0.002058)
 23:   1941.02   0.070163  354.57  0.011280  ( 0.004730  0.106103 -0.000036)

--------------------------
THERMOCHEMISTRY AT 298.15K
--------------------------

Temperature         ...   298.15 K
Pressure            ...     1.00 atm
Total Mass          ...    60.01 AMU
Quasi RRHO          ...     True
Cut-Off Frequency   ...     1.00 cm^-1

Throughout the following assumptions are being made:
  (1) The electronic state is orbitally nondegenerate
  (2) There are no thermally accessible electronically excited states
  (3) Hindered rotations indicated by low frequency modes are not
      treated as such but are treated as vibrations and this may
      cause some error
  (4) All equations used are the standard statistical mechanics
      equations for an ideal gas
  (5) All vibrations are strictly harmonic

freq.     191.91  E(vib)   ...       0.36
freq.     364.56  E(vib)   ...       0.22
freq.     405.21  E(vib)   ...       0.19
freq.     452.21  E(vib)   ...       0.16
freq.     471.71  E(vib)   ...       0.15
freq.     603.42  E(vib)   ...       0.10
freq.     672.13  E(vib)   ...       0.08
freq.     711.50  E(vib)   ...       0.07
freq.     719.46  E(vib)   ...       0.07
freq.     800.24  E(vib)   ...       0.05
freq.    1291.14  E(vib)   ...       0.01
freq.    1388.73  E(vib)   ...       0.00
freq.    1451.23  E(vib)   ...       0.00
freq.    1506.45  E(vib)   ...       0.00
freq.    1914.12  E(vib)   ...       0.00
freq.    1919.33  E(vib)   ...       0.00
freq.    1933.67  E(vib)   ...       0.00
freq.    1941.02  E(vib)   ...       0.00

------------
INNER ENERGY
------------

The inner energy is: U= E(el) + E(ZPE) + E(vib) + E(rot) + E(trans)
    E(el)   - is the total energy from the electronic structure calculation
              = E(kin-el) + E(nuc-el) + E(el-el) + E(nuc-nuc)
    E(ZPE)  - the the zero temperature vibrational energy from the frequency calculation
    E(vib)  - the the finite temperature correction to E(ZPE) due to population
              of excited vibrational states
    E(rot)  - is the rotational thermal energy
    E(trans)- is the translational thermal energy

Summary of contributions to the inner energy U:
Electronic energy                ...   -487.98434343 Eh
Zero point energy                ...      0.04268837 Eh      26.79 kcal/mol
Thermal vibrational correction   ...      0.00233869 Eh       1.47 kcal/mol
Thermal rotational correction    ...      0.00141627 Eh       0.89 kcal/mol
Thermal translational correction ...      0.00141627 Eh       0.89 kcal/mol
-----------------------------------------------------------------------
Total thermal energy                   -487.93648383 Eh

Summary of corrections to the electronic energy:
(perhaps to be used in another calculation)
Total thermal correction                  0.00517123 Eh       3.24 kcal/mol
Non-thermal (ZPE) correction              0.04268837 Eh      26.79 kcal/mol
-----------------------------------------------------------------------
Total correction                          0.04785960 Eh      30.03 kcal/mol

--------
ENTHALPY
--------

The enthalpy is H = U + kB*T
                kB is Boltzmann's constant
Total thermal energy              ...   -487.93648383 Eh
Thermal Enthalpy correction       ...      0.00094421 Eh       0.59 kcal/mol
-----------------------------------------------------------------------
Total Enthalpy                    ...   -487.93553962 Eh

Note: Only C1 symmetry has been detected, increase convergence thresholds
      if your molecule has a higher symmetry. Symmetry factor of 1.0 is
      used for the rotational entropy correction.

Note: Rotational entropy computed according to Herzberg
Infrared and Raman Spectra, Chapter V,1, Van Nostrand Reinhold, 1945
Point Group:  C1, Symmetry Number:   1
Rotational constants in cm-1:     1.529886     0.150031     0.142915

Vibrational entropy computed according to the QRRHO of S. Grimme
Chem.Eur.J. 2012 18 9955 using a reference frequency of 100.0 cm-1

-------
ENTROPY
-------

The entropy contributions are T*S = T*(S(el)+S(vib)+S(rot)+S(trans))
     S(el)   - electronic entropy
     S(vib)  - vibrational entropy
     S(rot)  - rotational entropy
     S(trans)- translational entropy
The entropies will be listed as multiplied by the temperature to get
units of energy

Electronic entropy                ...      0.00000000 Eh      0.00 kcal/mol
Vibrational entropy               ...      0.00353264 Eh      2.22 kcal/mol
Rotational entropy                ...      0.01112405 Eh      6.98 kcal/mol
Translational entropy             ...      0.01814806 Eh     11.39 kcal/mol
-----------------------------------------------------------------------
Final entropy term                ...      0.03280475 Eh     20.59 kcal/mol

In case the symmetry of your molecule has not been determined correctly
or in case you have a reason to use a different symmetry number we print
out the resulting rotational entropy values for sn=1,12:

 non-linear molecules -----------------------------------
|  sn= 1 | S(rot)=       0.01112405 Eh      6.98 kcal/mol|
|  sn= 2 | S(rot)=       0.01046959 Eh      6.57 kcal/mol|
|  sn= 3 | S(rot)=       0.01008676 Eh      6.33 kcal/mol|
|  sn= 4 | S(rot)=       0.00981514 Eh      6.16 kcal/mol|
|  sn= 5 | S(rot)=       0.00960445 Eh      6.03 kcal/mol|
|  sn= 6 | S(rot)=       0.00943230 Eh      5.92 kcal/mol|
|  sn= 7 | S(rot)=       0.00928676 Eh      5.83 kcal/mol|
|  sn= 8 | S(rot)=       0.00916068 Eh      5.75 kcal/mol|
|  sn= 9 | S(rot)=       0.00904947 Eh      5.68 kcal/mol|
|  sn=10 | S(rot)=       0.00894999 Eh      5.62 kcal/mol|
|  sn=11 | S(rot)=       0.00886000 Eh      5.56 kcal/mol|
|  sn=12 | S(rot)=       0.00877785 Eh      5.51 kcal/mol|
 linear molecules ---------------------------------------
|  Dinfh | S(rot)=       0.00716271 Eh      4.49 kcal/mol|
|  Cinfv | S(rot)=       0.00781717 Eh      4.91 kcal/mol|
 --------------------------------------------------------

-------------------
GIBBS FREE ENERGY
-------------------

The Gibbs free energy is G = H - T*S

Total enthalpy                    ...   -487.93553962 Eh
Total entropy correction          ...     -0.03280475 Eh    -20.59 kcal/mol
-----------------------------------------------------------------------
Final Gibbs free energy         ...   -487.96834437 Eh

For completeness - the Gibbs free energy minus the electronic energy
G-E(el)                           ...      0.01599906 Eh     10.04 kcal/mol

                             ****ORCA TERMINATED NORMALLY****
TOTAL RUN TIME: 0 days 0 hours 1 minutes 4 seconds 3 msec
