                         Program Version 6.1.0  -  RELEASE   -
|  1> # Geometry optimization for (AlH3)n cluster
|  2>
|  3> %pal nprocs 24  end
|  4>
|  5> %geom MaxIter 500 end
|  6>
|  7>
|  8> ! PBE def2-SV(P)
|  9> ! RKS	# closed shell for AlH3
| 10> ! D3    #  dispersion correction
| 11> ! Freq 	# Frequency analysis to check the stabiltity of the structures
| 12>
| 13> ! NoPop # population analysis not necessary
| 14>
| 15> ! RI
| 16> ! DEFGRID2
| 17> ! NormalSCF
| 18> ! SloppyOpt
| 19>
| 20> ! SmallPrint
| 21>
| 22>
| 23> * xyzFile 0 1 start.xyz # only maingroup elements H and Al so there should be no net spin
| 24>
| 25>                          ****END OF INPUT****
 Total Charge           Charge          ....    0
 Multiplicity           Mult            ....    1
 Number of Electrons    NEL             ....   80
Dispersion correction           -0.018633802
FINAL SINGLE POINT ENERGY     -1219.701568110675
Dispersion correction             ... done (  0.1 sec)
Dispersion correction           -0.018605966
FINAL SINGLE POINT ENERGY     -1219.752216225917
Dispersion correction             ... done (  0.1 sec)
Dispersion correction           -0.018574883
FINAL SINGLE POINT ENERGY     -1219.796217211303
Dispersion correction             ... done (  0.1 sec)
FINAL SINGLE POINT ENERGY     -1219.828640190505
FINAL SINGLE POINT ENERGY     -1219.863635365605
FINAL SINGLE POINT ENERGY     -1219.900603374613
FINAL SINGLE POINT ENERGY     -1219.927691671671
FINAL SINGLE POINT ENERGY     -1219.941129565512
FINAL SINGLE POINT ENERGY     -1219.948527291183
FINAL SINGLE POINT ENERGY     -1219.958246069111
FINAL SINGLE POINT ENERGY     -1219.977112317163
FINAL SINGLE POINT ENERGY     -1219.978225688054
FINAL SINGLE POINT ENERGY     -1219.979152661284
FINAL SINGLE POINT ENERGY     -1219.979985186207
FINAL SINGLE POINT ENERGY     -1219.980730378355
FINAL SINGLE POINT ENERGY     -1219.981299840819
FINAL SINGLE POINT ENERGY     -1219.981783393891
Dispersion correction             ... done (  0.1 sec)
Dispersion correction           -0.018236776
FINAL SINGLE POINT ENERGY     -1219.982073134531
Dispersion correction             ... done (  0.1 sec)
Dispersion correction           -0.018212506
FINAL SINGLE POINT ENERGY     -1219.982240142768
Dispersion correction             ... done (  0.1 sec)
                    ***********************HURRAY********************

CARTESIAN COORDINATES (ANGSTROEM)
---------------------------------
  Al    -0.500129    1.023085    3.022400
  Al     0.312077   -0.337362    0.126469
  H     -0.358564   -1.896605    0.463880
  H     -0.415478    0.116142   -1.221452
  H     -0.538511    0.402146    1.413010
  H     -2.010733    1.508823    3.238748
  H     -0.337916   -0.489495    3.766929
  H      1.874515   -0.385450    0.458698
  Al    -0.032132   -3.353629    1.295835
  H     -0.298041   -2.658801    2.866084
  H     -1.284629   -4.318572    1.050304
  H      0.843804    1.867610    3.210598
  Al     0.813640   -1.848258    3.880172
  H      0.332997   -1.880406    5.545871
  H      2.144201   -1.188475    3.302722
  H      1.528229   -3.689175    1.213340
  Al     0.962161   -3.489265    5.947631
  H      2.196365   -3.185846    6.910724
  H      1.444715   -3.546620    4.322812
  H     -0.350362   -4.364867    6.195213

 Multiplicity           Mult            ....    1
 Number of Electrons    NEL             ....   80
 Basis Dimension        Dim             ....  120

ORBITAL ENERGIES
----------------

  NO   OCC          E(Eh)            E(eV)
   0   2.0000     -55.420803     -1508.0767
   1   2.0000     -55.399029     -1507.4842
   2   2.0000     -55.394868     -1507.3710
   3   2.0000     -55.386854     -1507.1529
   4   2.0000     -55.381135     -1506.9973
   5   2.0000      -3.972984      -108.1104
   6   2.0000      -3.955614      -107.6377
   7   2.0000      -3.950910      -107.5097
   8   2.0000      -3.943221      -107.3005
   9   2.0000      -3.940983      -107.2396
  10   2.0000      -2.580221       -70.2114
  11   2.0000      -2.579557       -70.1933
  12   2.0000      -2.575686       -70.0880
  13   2.0000      -2.564542       -69.7847
  14   2.0000      -2.562017       -69.7160
  15   2.0000      -2.559858       -69.6573
  16   2.0000      -2.557370       -69.5896
  17   2.0000      -2.556367       -69.5623
  18   2.0000      -2.552103       -69.4462
  19   2.0000      -2.551639       -69.4336
  20   2.0000      -2.550265       -69.3962
  21   2.0000      -2.549491       -69.3752
  22   2.0000      -2.546630       -69.2973
  23   2.0000      -2.544175       -69.2305
  24   2.0000      -2.541911       -69.1689
  25   2.0000      -0.494247       -13.4491
  26   2.0000      -0.456273       -12.4158
  27   2.0000      -0.426440       -11.6040
  28   2.0000      -0.403622       -10.9831
  29   2.0000      -0.347409        -9.4535
  30   2.0000      -0.344476        -9.3737
  31   2.0000      -0.318196        -8.6586
  32   2.0000      -0.310866        -8.4591
  33   2.0000      -0.303475        -8.2580
  34   2.0000      -0.296339        -8.0638
  35   2.0000      -0.286425        -7.7940
  36   2.0000      -0.280995        -7.6463
  37   2.0000      -0.279698        -7.6110
  38   2.0000      -0.272699        -7.4205
  39   2.0000      -0.269223        -7.3259
  40   0.0000      -0.077350        -2.1048
  41   0.0000      -0.065343        -1.7781
  42   0.0000      -0.061930        -1.6852
  43   0.0000      -0.046366        -1.2617
  44   0.0000      -0.041587        -1.1316

-------
TIMINGS
-------

Dispersion correction           -0.018184958
FINAL SINGLE POINT ENERGY     -1219.982380184691

DIPOLE MOMENT
-------------

Method             : SCF
Type of density    : Electron Density
Multiplicity       :   1
Irrep              :   0
Energy             : -1219.9641952263477833 Eh
Basis              : AO
                                X                 Y                 Z
Electronic contribution:     -0.290145917      -0.548860939       0.081977437
Nuclear contribution   :      0.090670949       0.268053253      -0.069956647
                        -----------------------------------------
Total Dipole Moment    :     -0.199474969      -0.280807686       0.012020790
                        -----------------------------------------
Magnitude (a.u.)       :      0.344655943
Magnitude (Debye)      :      0.876045787

VIBRATIONAL FREQUENCIES
-----------------------

Scaling factor for frequencies =  1.000000000  (already applied!)

     0:       0.00 cm**-1
     1:       0.00 cm**-1
     2:       0.00 cm**-1
     3:       0.00 cm**-1
     4:       0.00 cm**-1
     5:       0.00 cm**-1
     6:     -64.14 cm**-1  ***imaginary mode***
     7:      32.78 cm**-1
     8:      53.52 cm**-1
     9:      77.99 cm**-1
    10:      99.47 cm**-1
    11:     108.94 cm**-1
    12:     121.71 cm**-1
    13:     134.33 cm**-1
    14:     165.18 cm**-1
    15:     226.81 cm**-1
    16:     275.72 cm**-1
    17:     326.33 cm**-1
    18:     344.07 cm**-1
    19:     355.51 cm**-1
    20:     365.72 cm**-1
    21:     385.79 cm**-1
    22:     406.82 cm**-1
    23:     436.14 cm**-1
    24:     469.89 cm**-1
    25:     489.32 cm**-1
    26:     510.69 cm**-1
    27:     547.95 cm**-1
    28:     583.59 cm**-1
    29:     658.97 cm**-1
    30:     668.53 cm**-1
    31:     672.80 cm**-1
    32:     679.67 cm**-1
    33:     694.48 cm**-1
    34:     701.10 cm**-1
    35:     720.75 cm**-1
    36:     726.48 cm**-1
    37:     804.89 cm**-1
    38:     839.93 cm**-1
    39:     868.33 cm**-1
    40:     930.53 cm**-1
    41:     942.59 cm**-1
    42:    1046.93 cm**-1
    43:    1106.48 cm**-1
    44:    1387.32 cm**-1
    45:    1448.75 cm**-1
    46:    1611.63 cm**-1
    47:    1697.37 cm**-1
    48:    1843.82 cm**-1
    49:    1847.65 cm**-1
    50:    1879.70 cm**-1
    51:    1909.85 cm**-1
    52:    1912.58 cm**-1
    53:    1914.77 cm**-1
    54:    1923.33 cm**-1
    55:    1927.20 cm**-1
    56:    1931.20 cm**-1
    57:    1937.24 cm**-1
    58:    1941.12 cm**-1
    59:    1943.87 cm**-1

IR SPECTRUM
-----------

 Mode   freq       eps      Int      T**2         TX        TY        TZ
       cm**-1   L/(mol*cm) km/mol    a.u.
----------------------------------------------------------------------------
  7:     32.78   0.000034    0.17  0.000327  (-0.010071 -0.003486 -0.014625)
  8:     53.52   0.000044    0.22  0.000258  (-0.003763 -0.009627  0.012297)
  9:     77.99   0.000603    3.05  0.002413  ( 0.044012  0.004226  0.021411)
 10:     99.47   0.000069    0.35  0.000216  (-0.008044  0.010086 -0.007036)
 11:    108.94   0.000064    0.32  0.000183  ( 0.013452  0.000678  0.001368)
 12:    121.71   0.000068    0.34  0.000174  (-0.010763  0.006298  0.004317)
 13:    134.33   0.000126    0.63  0.000292  (-0.011530 -0.005669 -0.011247)
 14:    165.18   0.000167    0.84  0.000315  (-0.015647  0.001739 -0.008190)
 15:    226.81   0.000730    3.69  0.001005  ( 0.003672  0.023265  0.021218)
 16:    275.72   0.003563   18.01  0.004032  ( 0.041451 -0.018019  0.044604)
 17:    326.33   0.001079    5.46  0.001032  ( 0.027769 -0.004195  0.015606)
 18:    344.07   0.001802    9.11  0.001634  ( 0.022797  0.016249  0.029161)
 19:    355.51   0.002792   14.11  0.002451  (-0.002347 -0.032719  0.037078)
 20:    365.72   0.005778   29.20  0.004930  ( 0.001748  0.044314 -0.054437)
 21:    385.79   0.001417    7.16  0.001146  ( 0.028088  0.017733 -0.006515)
 22:    406.82   0.000319    1.61  0.000245  ( 0.013041 -0.008628 -0.000093)
 23:    436.14   0.000146    0.74  0.000105  ( 0.005021 -0.001324 -0.008814)
 24:    469.89   0.010863   54.89  0.007214  (-0.011296  0.025336 -0.080278)
 25:    489.32   0.018821   95.11  0.012003  ( 0.016011 -0.004733 -0.108280)
 26:    510.69   0.001836    9.28  0.001122  ( 0.014241  0.005195  0.029872)
 27:    547.95   0.005057   25.56  0.002880  (-0.005877 -0.052715  0.008158)
 28:    583.59   0.039271  198.46  0.020999  (-0.051308  0.125147 -0.052009)
 29:    658.97   0.171111  864.72  0.081032  ( 0.050021 -0.224847  0.167255)
 30:    668.53   0.044098  222.85  0.020585  (-0.052578 -0.105569  0.081703)
 31:    672.80   0.181004  914.72  0.083955  ( 0.046435 -0.186601 -0.216746)
 32:    679.67   0.005835   29.49  0.002679  ( 0.003138 -0.030098 -0.041991)
 33:    694.48   0.015754   79.62  0.007079  ( 0.012612  0.025889 -0.079056)
 34:    701.10   0.006289   31.78  0.002799  ( 0.018694  0.009950 -0.048487)
 35:    720.75   0.087943  444.43  0.038077  (-0.036672  0.073811 -0.176872)
 36:    726.48   0.034528  174.49  0.014832  (-0.002300 -0.096031 -0.074862)
 37:    804.89   0.037804  191.05  0.014657  (-0.104785 -0.051720 -0.031659)
 38:    839.93   0.008890   44.93  0.003303  ( 0.006057  0.049669 -0.028273)
 39:    868.33   0.013244   66.93  0.004760  ( 0.051269 -0.031069  0.034143)
 40:    930.53   0.020227  102.22  0.006783  (-0.062073 -0.000679 -0.054126)
 41:    942.59   0.020080  101.47  0.006648  (-0.060344 -0.045679  0.030327)
 42:   1046.93   0.028892  146.01  0.008612  (-0.089661  0.017975  0.015803)
 43:   1106.48   0.065373  330.37  0.018437  ( 0.052444 -0.119194  0.038468)
 44:   1387.32   0.069848  352.98  0.015711  ( 0.042621 -0.115583  0.023142)
 45:   1448.75   0.139918  707.09  0.030139  (-0.012420  0.092937 -0.146106)
 46:   1611.63   0.080825  408.45  0.015650  (-0.001099  0.031943 -0.120949)
 47:   1697.37   0.054426  275.05  0.010006  ( 0.002171 -0.080770 -0.058973)
 48:   1843.82   0.157409  795.48  0.026641  ( 0.029032  0.101041  0.124856)
 49:   1847.65   0.275806  1393.81  0.046583  (-0.049860  0.201393 -0.059479)
 50:   1879.70   0.088373  446.60  0.014672  ( 0.049246 -0.006302 -0.110484)
 51:   1909.85   0.003792   19.17  0.000620  ( 0.005957  0.013022  0.020363)
 52:   1912.58   0.009010   45.53  0.001470  ( 0.001382 -0.026508 -0.027668)
 53:   1914.77   0.012213   61.72  0.001990  (-0.009356 -0.032336  0.029279)
 54:   1923.33   0.018895   95.49  0.003066  ( 0.054694  0.008039 -0.003107)
 55:   1927.20   0.009487   47.94  0.001536  (-0.032580 -0.010291  0.019206)
 56:   1931.20   0.044646  225.62  0.007214  ( 0.048031 -0.030163  0.063226)
 57:   1937.24   0.003525   17.81  0.000568  ( 0.023275  0.003848  0.003353)
 58:   1941.12   0.059152  298.93  0.009510  ( 0.078440  0.042408  0.039476)
 59:   1943.87   0.049368  249.49  0.007925  (-0.060982 -0.004303  0.064716)

--------------------------
THERMOCHEMISTRY AT 298.15K
--------------------------

Temperature         ...   298.15 K
Pressure            ...     1.00 atm
Total Mass          ...   150.03 AMU
Quasi RRHO          ...     True
Cut-Off Frequency   ...     1.00 cm^-1

Throughout the following assumptions are being made:
  (1) The electronic state is orbitally nondegenerate
  (2) There are no thermally accessible electronically excited states
  (3) Hindered rotations indicated by low frequency modes are not
      treated as such but are treated as vibrations and this may
      cause some error
  (4) All equations used are the standard statistical mechanics
      equations for an ideal gas
  (5) All vibrations are strictly harmonic

freq.      32.78  E(vib)   ...       0.55
freq.      53.52  E(vib)   ...       0.52
freq.      77.99  E(vib)   ...       0.49
freq.      99.47  E(vib)   ...       0.46
freq.     108.94  E(vib)   ...       0.45
freq.     121.71  E(vib)   ...       0.44
freq.     134.33  E(vib)   ...       0.42
freq.     165.18  E(vib)   ...       0.39
freq.     226.81  E(vib)   ...       0.33
freq.     275.72  E(vib)   ...       0.28
freq.     326.33  E(vib)   ...       0.24
freq.     344.07  E(vib)   ...       0.23
freq.     355.51  E(vib)   ...       0.22
freq.     365.72  E(vib)   ...       0.22
freq.     385.79  E(vib)   ...       0.20
freq.     406.82  E(vib)   ...       0.19
freq.     436.14  E(vib)   ...       0.17
freq.     469.89  E(vib)   ...       0.16
freq.     489.32  E(vib)   ...       0.15
freq.     510.69  E(vib)   ...       0.14
freq.     547.95  E(vib)   ...       0.12
freq.     583.59  E(vib)   ...       0.11
freq.     658.97  E(vib)   ...       0.08
freq.     668.53  E(vib)   ...       0.08
freq.     672.80  E(vib)   ...       0.08
freq.     679.67  E(vib)   ...       0.08
freq.     694.48  E(vib)   ...       0.07
freq.     701.10  E(vib)   ...       0.07
freq.     720.75  E(vib)   ...       0.07
freq.     726.48  E(vib)   ...       0.06
freq.     804.89  E(vib)   ...       0.05
freq.     839.93  E(vib)   ...       0.04
freq.     868.33  E(vib)   ...       0.04
freq.     930.53  E(vib)   ...       0.03
freq.     942.59  E(vib)   ...       0.03
freq.    1046.93  E(vib)   ...       0.02
freq.    1106.48  E(vib)   ...       0.02
freq.    1387.32  E(vib)   ...       0.00
freq.    1448.75  E(vib)   ...       0.00
freq.    1611.63  E(vib)   ...       0.00
freq.    1697.37  E(vib)   ...       0.00
freq.    1843.82  E(vib)   ...       0.00
freq.    1847.65  E(vib)   ...       0.00
freq.    1879.70  E(vib)   ...       0.00
freq.    1909.85  E(vib)   ...       0.00
freq.    1912.58  E(vib)   ...       0.00
freq.    1914.77  E(vib)   ...       0.00
freq.    1923.33  E(vib)   ...       0.00
freq.    1927.20  E(vib)   ...       0.00
freq.    1931.20  E(vib)   ...       0.00
freq.    1937.24  E(vib)   ...       0.00
freq.    1941.12  E(vib)   ...       0.00
freq.    1943.87  E(vib)   ...       0.00

------------
INNER ENERGY
------------

The inner energy is: U= E(el) + E(ZPE) + E(vib) + E(rot) + E(trans)
    E(el)   - is the total energy from the electronic structure calculation
              = E(kin-el) + E(nuc-el) + E(el-el) + E(nuc-nuc)
    E(ZPE)  - the the zero temperature vibrational energy from the frequency calculation
    E(vib)  - the the finite temperature correction to E(ZPE) due to population
              of excited vibrational states
    E(rot)  - is the rotational thermal energy
    E(trans)- is the translational thermal energy

Summary of contributions to the inner energy U:
Electronic energy                ...  -1219.98238018 Eh
Zero point energy                ...      0.10852769 Eh      68.10 kcal/mol
Thermal vibrational correction   ...      0.01161738 Eh       7.29 kcal/mol
Thermal rotational correction    ...      0.00141627 Eh       0.89 kcal/mol
Thermal translational correction ...      0.00141627 Eh       0.89 kcal/mol
-----------------------------------------------------------------------
Total thermal energy                  -1219.85940257 Eh

Summary of corrections to the electronic energy:
(perhaps to be used in another calculation)
Total thermal correction                  0.01444992 Eh       9.07 kcal/mol
Non-thermal (ZPE) correction              0.10852769 Eh      68.10 kcal/mol
-----------------------------------------------------------------------
Total correction                          0.12297761 Eh      77.17 kcal/mol

--------
ENTHALPY
--------

The enthalpy is H = U + kB*T
                kB is Boltzmann's constant
Total thermal energy              ...  -1219.85940257 Eh
Thermal Enthalpy correction       ...      0.00094421 Eh       0.59 kcal/mol
-----------------------------------------------------------------------
Total Enthalpy                    ...  -1219.85845836 Eh

Note: Only C1 symmetry has been detected, increase convergence thresholds
      if your molecule has a higher symmetry. Symmetry factor of 1.0 is
      used for the rotational entropy correction.

Note: Rotational entropy computed according to Herzberg
Infrared and Raman Spectra, Chapter V,1, Van Nostrand Reinhold, 1945
Point Group:  C1, Symmetry Number:   1
Rotational constants in cm-1:     0.043977     0.020626     0.015062

Vibrational entropy computed according to the QRRHO of S. Grimme
Chem.Eur.J. 2012 18 9955 using a reference frequency of 100.0 cm-1

-------
ENTROPY
-------

The entropy contributions are T*S = T*(S(el)+S(vib)+S(rot)+S(trans))
     S(el)   - electronic entropy
     S(vib)  - vibrational entropy
     S(rot)  - rotational entropy
     S(trans)- translational entropy
The entropies will be listed as multiplied by the temperature to get
units of energy

Electronic entropy                ...      0.00000000 Eh      0.00 kcal/mol
Vibrational entropy               ...      0.02041227 Eh     12.81 kcal/mol
Rotational entropy                ...      0.01479861 Eh      9.29 kcal/mol
Translational entropy             ...      0.01944577 Eh     12.20 kcal/mol
-----------------------------------------------------------------------
Final entropy term                ...      0.05465665 Eh     34.30 kcal/mol

In case the symmetry of your molecule has not been determined correctly
or in case you have a reason to use a different symmetry number we print
out the resulting rotational entropy values for sn=1,12:

 non-linear molecules -----------------------------------
|  sn= 1 | S(rot)=       0.01479861 Eh      9.29 kcal/mol|
|  sn= 2 | S(rot)=       0.01414416 Eh      8.88 kcal/mol|
|  sn= 3 | S(rot)=       0.01376132 Eh      8.64 kcal/mol|
|  sn= 4 | S(rot)=       0.01348970 Eh      8.46 kcal/mol|
|  sn= 5 | S(rot)=       0.01327901 Eh      8.33 kcal/mol|
|  sn= 6 | S(rot)=       0.01310687 Eh      8.22 kcal/mol|
|  sn= 7 | S(rot)=       0.01296132 Eh      8.13 kcal/mol|

                             ****ORCA TERMINATED NORMALLY****
TOTAL RUN TIME: 0 days 0 hours 4 minutes 12 seconds 350 msec
