                         Program Version 6.1.0  -  RELEASE   -
|  1> # Geometry optimization for (AlH3)n cluster
|  2>
|  3> %pal nprocs 24  end
|  4>
|  5> %geom MaxIter 500 end
|  6>
|  7>
|  8> ! PBE def2-SV(P)
|  9> ! RKS	# closed shell for AlH3
| 10> ! D3    #  dispersion correction
| 11> ! Freq 	# Frequency analysis to check the stabiltity of the structures
| 12>
| 13> ! NoPop # population analysis not necessary
| 14>
| 15> ! RI
| 16> ! DEFGRID2
| 17> ! NormalSCF
| 18> ! SloppyOpt
| 19>
| 20> ! SmallPrint
| 21>
| 22>
| 23> * xyzFile 0 1 start.xyz # only maingroup elements H and Al so there should be no net spin
| 24>
| 25>                          ****END OF INPUT****
 Total Charge           Charge          ....    0
 Multiplicity           Mult            ....    1
 Number of Electrons    NEL             ....   64
Dispersion correction           -0.014009989
FINAL SINGLE POINT ENERGY      -975.333317187935
Dispersion correction             ... done (  0.1 sec)
Dispersion correction           -0.013921356
FINAL SINGLE POINT ENERGY      -975.511321347173
Dispersion correction             ... done (  0.1 sec)
Dispersion correction           -0.013781699
FINAL SINGLE POINT ENERGY      -975.667244286246
Dispersion correction             ... done (  0.1 sec)
FINAL SINGLE POINT ENERGY      -975.764478868813
FINAL SINGLE POINT ENERGY      -975.845677290414
FINAL SINGLE POINT ENERGY      -975.902677514361
FINAL SINGLE POINT ENERGY      -975.935917007071
FINAL SINGLE POINT ENERGY      -975.949827985125
FINAL SINGLE POINT ENERGY      -975.956488445073
FINAL SINGLE POINT ENERGY      -975.964977917556
FINAL SINGLE POINT ENERGY      -975.972344699418
FINAL SINGLE POINT ENERGY      -975.975926487383
FINAL SINGLE POINT ENERGY      -975.977789049982
FINAL SINGLE POINT ENERGY      -975.978801730453
Dispersion correction             ... done (  0.1 sec)
Dispersion correction           -0.013219883
FINAL SINGLE POINT ENERGY      -975.979511245552
Dispersion correction             ... done (  0.1 sec)
Dispersion correction           -0.013216805
FINAL SINGLE POINT ENERGY      -975.980058112719
Dispersion correction             ... done (  0.1 sec)
                    ***********************HURRAY********************

CARTESIAN COORDINATES (ANGSTROEM)
---------------------------------
  Al    -0.060168    1.267489    2.802468
  Al     0.369164   -0.302636   -0.150691
  H     -0.170293   -1.752828    0.613800
  H     -0.890239    0.138410   -1.027264
  H      0.344064    0.655748    1.253758
  H     -1.441535    2.055288    2.646630
  H     -0.499119   -0.241806    3.471090
  H      1.883909   -0.458596   -0.617051
  Al     0.576747   -3.034386    1.470942
  H     -0.167197   -2.659343    2.989578
  H     -0.200555   -4.370331    1.092617
  H      1.320905    1.754966    3.447418
  Al     0.230080   -1.586685    4.271269
  H     -0.781044   -1.944229    5.449173
  H      1.804608   -1.355080    4.380052
  H      2.133933   -2.760780    1.620441

 Multiplicity           Mult            ....    1
 Number of Electrons    NEL             ....   64
 Basis Dimension        Dim             ....   96

ORBITAL ENERGIES
----------------

  NO   OCC          E(Eh)            E(eV)
   0   2.0000     -55.396546     -1507.4166
   1   2.0000     -55.395888     -1507.3987
   2   2.0000     -55.394742     -1507.3676
   3   2.0000     -55.392980     -1507.3196
   4   2.0000      -3.952982      -107.5661
   5   2.0000      -3.952037      -107.5404
   6   2.0000      -3.951896      -107.5366
   7   2.0000      -3.949800      -107.4795
   8   2.0000      -2.561803       -69.7102
   9   2.0000      -2.560876       -69.6850
  10   2.0000      -2.560661       -69.6791
  11   2.0000      -2.559550       -69.6489
  12   2.0000      -2.558723       -69.6264
  13   2.0000      -2.558692       -69.6256
  14   2.0000      -2.558508       -69.6205
  15   2.0000      -2.556099       -69.5550
  16   2.0000      -2.553654       -69.4884
  17   2.0000      -2.552662       -69.4615
  18   2.0000      -2.552513       -69.4574
  19   2.0000      -2.550604       -69.4055
  20   2.0000      -0.478194       -13.0123
  21   2.0000      -0.429031       -11.6745
  22   2.0000      -0.427517       -11.6333
  23   2.0000      -0.351157        -9.5555
  24   2.0000      -0.341678        -9.2975
  25   2.0000      -0.305184        -8.3045
  26   2.0000      -0.300627        -8.1805
  27   2.0000      -0.298326        -8.1179
  28   2.0000      -0.289585        -7.8800
  29   2.0000      -0.281282        -7.6541
  30   2.0000      -0.278662        -7.5828
  31   2.0000      -0.267837        -7.2882
  32   0.0000      -0.070087        -1.9072
  33   0.0000      -0.067192        -1.8284
  34   0.0000      -0.054866        -1.4930
  35   0.0000      -0.042591        -1.1590
  36   0.0000      -0.026326        -0.7164

-------
TIMINGS
-------

Dispersion correction           -0.013209253
FINAL SINGLE POINT ENERGY      -975.980287431374

DIPOLE MOMENT
-------------

Method             : SCF
Type of density    : Electron Density
Multiplicity       :   1
Irrep              :   0
Energy             :  -975.9670781784088831 Eh
Basis              : AO
                                X                 Y                 Z
Electronic contribution:     -0.134173784      -0.101092593      -0.207810203
Nuclear contribution   :     -0.008770168       0.026284172       0.120854662
                        -----------------------------------------
Total Dipole Moment    :     -0.142943952      -0.074808421      -0.086955541
                        -----------------------------------------
Magnitude (a.u.)       :      0.183277220
Magnitude (Debye)      :      0.465853672

VIBRATIONAL FREQUENCIES
-----------------------

Scaling factor for frequencies =  1.000000000  (already applied!)

     0:       0.00 cm**-1
     1:       0.00 cm**-1
     2:       0.00 cm**-1
     3:       0.00 cm**-1
     4:       0.00 cm**-1
     5:       0.00 cm**-1
     6:     -96.10 cm**-1  ***imaginary mode***
     7:     -65.12 cm**-1  ***imaginary mode***
     8:      75.02 cm**-1
     9:      92.95 cm**-1
    10:     122.00 cm**-1
    11:     145.59 cm**-1
    12:     171.17 cm**-1
    13:     290.08 cm**-1
    14:     307.60 cm**-1
    15:     348.63 cm**-1
    16:     367.32 cm**-1
    17:     385.86 cm**-1
    18:     415.37 cm**-1
    19:     427.02 cm**-1
    20:     435.68 cm**-1
    21:     490.26 cm**-1
    22:     513.27 cm**-1
    23:     534.55 cm**-1
    24:     651.78 cm**-1
    25:     667.98 cm**-1
    26:     671.25 cm**-1
    27:     699.85 cm**-1
    28:     715.19 cm**-1
    29:     722.16 cm**-1
    30:     738.75 cm**-1
    31:     744.61 cm**-1
    32:     797.80 cm**-1
    33:     956.62 cm**-1
    34:     992.98 cm**-1
    35:    1015.99 cm**-1
    36:    1759.71 cm**-1
    37:    1844.24 cm**-1
    38:    1866.83 cm**-1
    39:    1898.05 cm**-1
    40:    1920.98 cm**-1
    41:    1926.55 cm**-1
    42:    1933.66 cm**-1
    43:    1943.54 cm**-1
    44:    1946.06 cm**-1
    45:    1947.57 cm**-1
    46:    1969.33 cm**-1
    47:    2000.41 cm**-1

IR SPECTRUM
-----------

 Mode   freq       eps      Int      T**2         TX        TY        TZ
       cm**-1   L/(mol*cm) km/mol    a.u.
----------------------------------------------------------------------------
  8:     75.02   0.000269    1.36  0.001121  ( 0.031913 -0.000651  0.010088)
  9:     92.95   0.000044    0.22  0.000148  ( 0.011988 -0.001138 -0.001698)
 10:    122.00   0.000131    0.66  0.000336  ( 0.015357  0.009624 -0.002667)
 11:    145.59   0.000018    0.09  0.000039  (-0.002233  0.003689  0.004507)
 12:    171.17   0.000081    0.41  0.000148  (-0.008087  0.005947 -0.006865)
 13:    290.08   0.000859    4.34  0.000924  (-0.019423 -0.022815  0.005107)
 14:    307.60   0.000644    3.25  0.000653  (-0.002415 -0.017703 -0.018275)
 15:    348.63   0.004107   20.75  0.003676  ( 0.050588  0.032208 -0.008917)
 16:    367.32   0.000594    3.00  0.000504  (-0.017815  0.010065 -0.009258)
 17:    385.86   0.000335    1.69  0.000271  ( 0.002590  0.000927  0.016216)
 18:    415.37   0.000381    1.92  0.000286  ( 0.008614  0.011427  0.009010)
 19:    427.02   0.000065    0.33  0.000048  (-0.006115 -0.001613  0.002796)
 20:    435.68   0.000046    0.23  0.000033  (-0.002284 -0.004307 -0.003068)
 21:    490.26   0.000617    3.12  0.000393  (-0.006871 -0.015885  0.009664)
 22:    513.27   0.009293   46.96  0.005650  (-0.004253 -0.071823  0.021754)
 23:    534.55   0.011122   56.21  0.006493  ( 0.012411 -0.025405 -0.075454)
 24:    651.78   0.016248   82.11  0.007780  ( 0.027117 -0.080272 -0.024508)
 25:    667.98   0.162086  819.11  0.075723  (-0.058651  0.257342 -0.077834)
 26:    671.25   0.199784  1009.63  0.092879  (-0.023831  0.065330  0.296721)
 27:    699.85   0.014849   75.04  0.006621  (-0.054663 -0.048193 -0.036200)
 28:    715.19   0.064804  327.49  0.028277  (-0.031139  0.113653  0.119958)
 29:    722.16   0.072463  366.20  0.031313  ( 0.016682 -0.144643  0.100562)
 30:    738.75   0.002384   12.05  0.001007  (-0.006941  0.028814 -0.011335)
 31:    744.61   0.018823   95.12  0.007889  (-0.058680 -0.050051  0.044047)
 32:    797.80   0.008538   43.15  0.003340  ( 0.052157  0.024844 -0.001456)
 33:    956.62   0.012526   63.30  0.004086  ( 0.060815 -0.000251  0.019689)
 34:    992.98   0.006117   30.91  0.001922  (-0.042182  0.006707 -0.009908)
 35:   1015.99   0.041965  212.08  0.012890  (-0.106324 -0.038161  0.011344)
 36:   1759.71   0.055275  279.34  0.009802  ( 0.009624 -0.034577 -0.092272)
 37:   1844.24   0.173545  877.02  0.029366  (-0.023245  0.168119  0.023691)
 38:   1866.83   0.232204  1173.46  0.038816  ( 0.009593 -0.135630  0.142577)
 39:   1898.05   0.094255  476.32  0.015497  (-0.002792 -0.028143 -0.121230)
 40:   1920.98   0.009609   48.56  0.001561  (-0.010908  0.034588  0.015675)
 41:   1926.55   0.009526   48.14  0.001543  ( 0.030457 -0.012654  0.021336)
 42:   1933.66   0.018970   95.87  0.003062  (-0.050838 -0.019069  0.010646)
 43:   1943.54   0.008004   40.45  0.001285  ( 0.034900  0.006482 -0.005015)
 44:   1946.06   0.001815    9.17  0.000291  ( 0.007940  0.013718 -0.006309)
 45:   1947.57   0.034461  174.15  0.005522  (-0.068990  0.024424  0.012867)
 46:   1969.33   0.039222  198.21  0.006215  (-0.074021 -0.027110 -0.001037)
 47:   2000.41   0.154201  779.27  0.024055  (-0.018417  0.079573  0.131849)

--------------------------
THERMOCHEMISTRY AT 298.15K
--------------------------

Temperature         ...   298.15 K
Pressure            ...     1.00 atm
Total Mass          ...   120.02 AMU
Quasi RRHO          ...     True
Cut-Off Frequency   ...     1.00 cm^-1

Throughout the following assumptions are being made:
  (1) The electronic state is orbitally nondegenerate
  (2) There are no thermally accessible electronically excited states
  (3) Hindered rotations indicated by low frequency modes are not
      treated as such but are treated as vibrations and this may
      cause some error
  (4) All equations used are the standard statistical mechanics
      equations for an ideal gas
  (5) All vibrations are strictly harmonic

freq.      75.02  E(vib)   ...       0.49
freq.      92.95  E(vib)   ...       0.47
freq.     122.00  E(vib)   ...       0.44
freq.     145.59  E(vib)   ...       0.41
freq.     171.17  E(vib)   ...       0.38
freq.     290.08  E(vib)   ...       0.27
freq.     307.60  E(vib)   ...       0.26
freq.     348.63  E(vib)   ...       0.23
freq.     367.32  E(vib)   ...       0.21
freq.     385.86  E(vib)   ...       0.20
freq.     415.37  E(vib)   ...       0.18
freq.     427.02  E(vib)   ...       0.18
freq.     435.68  E(vib)   ...       0.17
freq.     490.26  E(vib)   ...       0.15
freq.     513.27  E(vib)   ...       0.13
freq.     534.55  E(vib)   ...       0.13
freq.     651.78  E(vib)   ...       0.08
freq.     667.98  E(vib)   ...       0.08
freq.     671.25  E(vib)   ...       0.08
freq.     699.85  E(vib)   ...       0.07
freq.     715.19  E(vib)   ...       0.07
freq.     722.16  E(vib)   ...       0.07
freq.     738.75  E(vib)   ...       0.06
freq.     744.61  E(vib)   ...       0.06
freq.     797.80  E(vib)   ...       0.05
freq.     956.62  E(vib)   ...       0.03
freq.     992.98  E(vib)   ...       0.02
freq.    1015.99  E(vib)   ...       0.02
freq.    1759.71  E(vib)   ...       0.00
freq.    1844.24  E(vib)   ...       0.00
freq.    1866.83  E(vib)   ...       0.00
freq.    1898.05  E(vib)   ...       0.00
freq.    1920.98  E(vib)   ...       0.00
freq.    1926.55  E(vib)   ...       0.00
freq.    1933.66  E(vib)   ...       0.00
freq.    1943.54  E(vib)   ...       0.00
freq.    1946.06  E(vib)   ...       0.00
freq.    1947.57  E(vib)   ...       0.00
freq.    1969.33  E(vib)   ...       0.00
freq.    2000.41  E(vib)   ...       0.00

------------
INNER ENERGY
------------

The inner energy is: U= E(el) + E(ZPE) + E(vib) + E(rot) + E(trans)
    E(el)   - is the total energy from the electronic structure calculation
              = E(kin-el) + E(nuc-el) + E(el-el) + E(nuc-nuc)
    E(ZPE)  - the the zero temperature vibrational energy from the frequency calculation
    E(vib)  - the the finite temperature correction to E(ZPE) due to population
              of excited vibrational states
    E(rot)  - is the rotational thermal energy
    E(trans)- is the translational thermal energy

Summary of contributions to the inner energy U:
Electronic energy                ...   -975.98028743 Eh
Zero point energy                ...      0.08532718 Eh      53.54 kcal/mol
Thermal vibrational correction   ...      0.00796435 Eh       5.00 kcal/mol
Thermal rotational correction    ...      0.00141627 Eh       0.89 kcal/mol
Thermal translational correction ...      0.00141627 Eh       0.89 kcal/mol
-----------------------------------------------------------------------
Total thermal energy                   -975.88416336 Eh

Summary of corrections to the electronic energy:
(perhaps to be used in another calculation)
Total thermal correction                  0.01079689 Eh       6.78 kcal/mol
Non-thermal (ZPE) correction              0.08532718 Eh      53.54 kcal/mol
-----------------------------------------------------------------------
Total correction                          0.09612407 Eh      60.32 kcal/mol

--------
ENTHALPY
--------

The enthalpy is H = U + kB*T
                kB is Boltzmann's constant
Total thermal energy              ...   -975.88416336 Eh
Thermal Enthalpy correction       ...      0.00094421 Eh       0.59 kcal/mol
-----------------------------------------------------------------------
Total Enthalpy                    ...   -975.88321915 Eh

Note: Only C1 symmetry has been detected, increase convergence thresholds
      if your molecule has a higher symmetry. Symmetry factor of 1.0 is
      used for the rotational entropy correction.

Note: Rotational entropy computed according to Herzberg
Infrared and Raman Spectra, Chapter V,1, Van Nostrand Reinhold, 1945
Point Group:  C1, Symmetry Number:   1
Rotational constants in cm-1:     0.050667     0.048353     0.025937

Vibrational entropy computed according to the QRRHO of S. Grimme
Chem.Eur.J. 2012 18 9955 using a reference frequency of 100.0 cm-1

-------
ENTROPY
-------

The entropy contributions are T*S = T*(S(el)+S(vib)+S(rot)+S(trans))
     S(el)   - electronic entropy
     S(vib)  - vibrational entropy
     S(rot)  - rotational entropy
     S(trans)- translational entropy
The entropies will be listed as multiplied by the temperature to get
units of energy

Electronic entropy                ...      0.00000000 Eh      0.00 kcal/mol
Vibrational entropy               ...      0.01341849 Eh      8.42 kcal/mol
Rotational entropy                ...      0.01407299 Eh      8.83 kcal/mol
Translational entropy             ...      0.01912974 Eh     12.00 kcal/mol
-----------------------------------------------------------------------
Final entropy term                ...      0.04662122 Eh     29.26 kcal/mol

In case the symmetry of your molecule has not been determined correctly
or in case you have a reason to use a different symmetry number we print
out the resulting rotational entropy values for sn=1,12:

 non-linear molecules -----------------------------------
|  sn= 1 | S(rot)=       0.01407299 Eh      8.83 kcal/mol|
|  sn= 2 | S(rot)=       0.01341854 Eh      8.42 kcal/mol|
|  sn= 3 | S(rot)=       0.01303571 Eh      8.18 kcal/mol|
|  sn= 4 | S(rot)=       0.01276408 Eh      8.01 kcal/mol|
|  sn= 5 | S(rot)=       0.01255339 Eh      7.88 kcal/mol|
|  sn= 6 | S(rot)=       0.01238125 Eh      7.77 kcal/mol|
|  sn= 7 | S(rot)=       0.01223570 Eh      7.68 kcal/mol|
|  sn= 8 | S(rot)=       0.01210963 Eh      7.60 kcal/mol|
|  sn= 9 | S(rot)=       0.01199842 Eh      7.53 kcal/mol|
|  sn=10 | S(rot)=       0.01189894 Eh      7.47 kcal/mol|
|  sn=11 | S(rot)=       0.01180895 Eh      7.41 kcal/mol|
|  sn=12 | S(rot)=       0.01172679 Eh      7.36 kcal/mol|
 linear molecules ---------------------------------------
|  Dinfh | S(rot)=       0.00877403 Eh      5.51 kcal/mol|
|  Cinfv | S(rot)=       0.00942849 Eh      5.92 kcal/mol|
 --------------------------------------------------------

-------------------
GIBBS FREE ENERGY

                             ****ORCA TERMINATED NORMALLY****
TOTAL RUN TIME: 0 days 0 hours 2 minutes 32 seconds 297 msec
