                         Program Version 6.1.0  -  RELEASE   -
|  1> # Geometry optimization for (AlH3)n cluster
|  2>
|  3> %pal nprocs 24  end
|  4>
|  5> %geom MaxIter 500 end
|  6>
|  7> %cpcm
|  8> 	epsilon 1.95778548766667
|  9> end
| 10>
| 11> ! PBE def2-TZVP
| 12> ! RKS	# closed shell for AlH3
| 13> ! D3    #  dispersion correction
| 14> ! Freq 	# Frequency analysis to check the stabiltity of the structures
| 15>
| 16> ! NoPop # population analysis not necessary
| 17>
| 18> ! DEFGRID3
| 19> ! TightSCF
| 20> ! TightOpt
| 21>
| 22> ! SmallPrint
| 23>
| 24>
| 25> * xyzFile 0 1 start.xyz # only maingroup elements H and Al so there should be no net spin
| 26>
| 27>                          ****END OF INPUT****
 Total Charge           Charge          ....    0
 Multiplicity           Mult            ....    1
 Number of Electrons    NEL             ....  112
Dispersion correction           -0.033462059
FINAL SINGLE POINT ENERGY     -1708.648370877563
Dispersion correction             ... done (  0.1 sec)
Dispersion correction           -0.033464080
FINAL SINGLE POINT ENERGY     -1708.648391323050
Dispersion correction             ... done (  0.1 sec)
Dispersion correction           -0.033472181
FINAL SINGLE POINT ENERGY     -1708.648452877077
Dispersion correction             ... done (  0.1 sec)
FINAL SINGLE POINT ENERGY     -1708.648459167301
FINAL SINGLE POINT ENERGY     -1708.648476706568
FINAL SINGLE POINT ENERGY     -1708.648479190437
FINAL SINGLE POINT ENERGY     -1708.648482786715
FINAL SINGLE POINT ENERGY     -1708.648485343087
FINAL SINGLE POINT ENERGY     -1708.648487284393
FINAL SINGLE POINT ENERGY     -1708.648488371819
FINAL SINGLE POINT ENERGY     -1708.648491296355
FINAL SINGLE POINT ENERGY     -1708.648491818540
FINAL SINGLE POINT ENERGY     -1708.648492449646
FINAL SINGLE POINT ENERGY     -1708.648493000481
FINAL SINGLE POINT ENERGY     -1708.648493287581
FINAL SINGLE POINT ENERGY     -1708.648493469737
FINAL SINGLE POINT ENERGY     -1708.648493648973
Dispersion correction             ... done (  0.1 sec)
Dispersion correction           -0.033376843
FINAL SINGLE POINT ENERGY     -1708.648493823773
Dispersion correction             ... done (  0.1 sec)
Dispersion correction           -0.033376958
FINAL SINGLE POINT ENERGY     -1708.648493927324
Dispersion correction             ... done (  0.1 sec)
                    ***********************HURRAY********************

CARTESIAN COORDINATES (ANGSTROEM)
---------------------------------
  Al     1.560161   -4.035290    0.602451
  Al     1.620468   -4.027606    3.818963
  Al     0.866752   -0.957096    1.134609
  Al    -0.838969   -2.214354    3.390762
  Al    -1.094868    0.601200    2.150234
  Al    -0.834291    0.418188    5.191263
  Al    -2.460638   -1.838182    6.056828
  H      0.731129   -5.108304   -0.230648
  H      3.143704   -3.862027    0.599756
  H      1.653410   -5.469021    4.494373
  H      2.791602   -2.950227    3.852124
  H      1.066366   -4.275941    2.224003
  H      0.843570   -2.525750    0.328765
  H      2.213320   -0.296259    0.633327
  H     -0.674157   -0.539671    0.656234
  H     -1.240523    1.330203    3.869725
  H     -1.764665   -0.774613    2.830287
  H      0.543333    0.636587    2.291899
  H     -2.016312    1.648561    1.404486
  H     -2.381240   -0.162566    5.578899
  H     -3.986060   -2.057296    6.439259
  H     -1.174713   -2.016598    6.984254
  H     -2.143540   -2.499991    4.548440
  H      0.185687   -3.266624    4.336338
  H      0.683589   -1.691864    2.624578
  H     -1.404433   -3.170690    2.243504
  H     -0.145690   -0.974754    4.605544
  H     -0.087632    1.167724    6.367472

 Multiplicity           Mult            ....    1
 Number of Electrons    NEL             ....  112
 Basis Dimension        Dim             ....  385

ORBITAL ENERGIES
----------------

  NO   OCC          E(Eh)            E(eV)
   0   2.0000     -55.401085     -1507.5402
   1   2.0000     -55.396266     -1507.4090
   2   2.0000     -55.387887     -1507.1810
   3   2.0000     -55.387130     -1507.1604
   4   2.0000     -55.378447     -1506.9242
   5   2.0000     -55.369346     -1506.6765
   6   2.0000     -55.366831     -1506.6081
   7   2.0000      -3.956272      -107.6556
   8   2.0000      -3.955594      -107.6372
   9   2.0000      -3.946498      -107.3897
  10   2.0000      -3.945368      -107.3589
  11   2.0000      -3.938973      -107.1849
  12   2.0000      -3.929414      -106.9248
  13   2.0000      -3.927011      -106.8594
  14   2.0000      -2.559645       -69.6515
  15   2.0000      -2.559603       -69.6503
  16   2.0000      -2.559290       -69.6418
  17   2.0000      -2.558303       -69.6150
  18   2.0000      -2.555527       -69.5394
  19   2.0000      -2.554371       -69.5080
  20   2.0000      -2.551104       -69.4191
  21   2.0000      -2.549380       -69.3721
  22   2.0000      -2.548933       -69.3600
  23   2.0000      -2.548554       -69.3497
  24   2.0000      -2.545064       -69.2547
  25   2.0000      -2.544142       -69.2296
  26   2.0000      -2.543801       -69.2203
  27   2.0000      -2.541554       -69.1592
  28   2.0000      -2.536609       -69.0247
  29   2.0000      -2.534407       -68.9647
  30   2.0000      -2.532038       -68.9003
  31   2.0000      -2.531844       -68.8950
  32   2.0000      -2.529832       -68.8402
  33   2.0000      -2.527206       -68.7688
  34   2.0000      -2.524735       -68.7015
  35   2.0000      -0.518007       -14.0957
  36   2.0000      -0.467491       -12.7211
  37   2.0000      -0.451572       -12.2879
  38   2.0000      -0.414456       -11.2779
  39   2.0000      -0.405188       -11.0257
  40   2.0000      -0.378584       -10.3018
  41   2.0000      -0.374662       -10.1951
  42   2.0000      -0.338718        -9.2170
  43   2.0000      -0.329988        -8.9794
  44   2.0000      -0.325933        -8.8691
  45   2.0000      -0.311371        -8.4728
  46   2.0000      -0.309701        -8.4274
  47   2.0000      -0.302067        -8.2197
  48   2.0000      -0.289619        -7.8809
  49   2.0000      -0.284925        -7.7532
  50   2.0000      -0.280787        -7.6406
  51   2.0000      -0.275809        -7.5051
  52   2.0000      -0.269763        -7.3406
  53   2.0000      -0.260574        -7.0906
  54   2.0000      -0.257898        -7.0178
  55   2.0000      -0.254275        -6.9192
  56   0.0000      -0.084480        -2.2988
  57   0.0000      -0.062622        -1.7040
  58   0.0000      -0.053460        -1.4547
  59   0.0000      -0.051124        -1.3912
  60   0.0000      -0.044103        -1.2001

-------
TIMINGS
-------

Dispersion correction           -0.033376736
FINAL SINGLE POINT ENERGY     -1708.648494001513

DIPOLE MOMENT
-------------

Method             : SCF
Type of density    : Electron Density
Multiplicity       :   1
Irrep              :   0
Energy             : -1708.6151172652914738 Eh
Basis              : AO
                                X                 Y                 Z
Electronic contribution:     -1.149010307       1.690971755       0.811361948
Nuclear contribution   :      0.332913800      -0.611545463      -0.308274800
                        -----------------------------------------
Total Dipole Moment    :     -0.816096508       1.079426292       0.503087148
                        -----------------------------------------
Magnitude (a.u.)       :      1.443700561
Magnitude (Debye)      :      3.669595198

VIBRATIONAL FREQUENCIES
-----------------------

Scaling factor for frequencies =  1.000000000  (already applied!)

     0:       0.00 cm**-1
     1:       0.00 cm**-1
     2:       0.00 cm**-1
     3:       0.00 cm**-1
     4:       0.00 cm**-1
     5:       0.00 cm**-1
     6:      31.94 cm**-1
     7:      52.45 cm**-1
     8:      59.89 cm**-1
     9:      74.77 cm**-1
    10:      96.35 cm**-1
    11:     119.99 cm**-1
    12:     130.03 cm**-1
    13:     134.62 cm**-1
    14:     162.12 cm**-1
    15:     176.44 cm**-1
    16:     191.76 cm**-1
    17:     210.21 cm**-1
    18:     248.21 cm**-1
    19:     260.16 cm**-1
    20:     269.29 cm**-1
    21:     289.24 cm**-1
    22:     304.62 cm**-1
    23:     318.25 cm**-1
    24:     334.89 cm**-1
    25:     359.67 cm**-1
    26:     362.16 cm**-1
    27:     384.13 cm**-1
    28:     400.04 cm**-1
    29:     419.55 cm**-1
    30:     435.38 cm**-1
    31:     451.33 cm**-1
    32:     473.73 cm**-1
    33:     478.49 cm**-1
    34:     502.29 cm**-1
    35:     516.17 cm**-1
    36:     534.38 cm**-1
    37:     546.19 cm**-1
    38:     577.57 cm**-1
    39:     621.65 cm**-1
    40:     637.48 cm**-1
    41:     661.13 cm**-1
    42:     664.34 cm**-1
    43:     682.13 cm**-1
    44:     694.78 cm**-1
    45:     704.96 cm**-1
    46:     711.12 cm**-1
    47:     721.24 cm**-1
    48:     734.71 cm**-1
    49:     749.10 cm**-1
    50:     794.07 cm**-1
    51:     829.97 cm**-1
    52:     884.15 cm**-1
    53:     920.16 cm**-1
    54:     941.81 cm**-1
    55:     960.89 cm**-1
    56:     990.90 cm**-1
    57:    1012.83 cm**-1
    58:    1034.53 cm**-1
    59:    1053.77 cm**-1
    60:    1063.09 cm**-1
    61:    1115.39 cm**-1
    62:    1184.60 cm**-1
    63:    1591.01 cm**-1
    64:    1613.82 cm**-1
    65:    1631.54 cm**-1
    66:    1652.53 cm**-1
    67:    1681.92 cm**-1
    68:    1696.07 cm**-1
    69:    1731.18 cm**-1
    70:    1743.16 cm**-1
    71:    1777.81 cm**-1
    72:    1807.75 cm**-1
    73:    1827.24 cm**-1
    74:    1869.02 cm**-1
    75:    1879.60 cm**-1
    76:    1880.82 cm**-1
    77:    1882.59 cm**-1
    78:    1887.04 cm**-1
    79:    1899.30 cm**-1
    80:    1900.66 cm**-1
    81:    1915.27 cm**-1
    82:    1918.99 cm**-1
    83:    1920.99 cm**-1

IR SPECTRUM
-----------

 Mode   freq       eps      Int      T**2         TX        TY        TZ
       cm**-1   L/(mol*cm) km/mol    a.u.
----------------------------------------------------------------------------
  6:     31.94   0.000101    0.51  0.000986  ( 0.015019  0.004099  0.027277)
  7:     52.45   0.000168    0.85  0.001000  ( 0.007824 -0.029889  0.006740)
  8:     59.89   0.000067    0.34  0.000347  (-0.011562  0.004825 -0.013778)
  9:     74.77   0.000030    0.15  0.000124  (-0.010186  0.002794 -0.003591)
 10:     96.35   0.001075    5.43  0.003483  ( 0.030140  0.046879 -0.019406)
 11:    119.99   0.000471    2.38  0.001224  ( 0.025573  0.018913 -0.014576)
 12:    130.03   0.000331    1.67  0.000793  ( 0.020761  0.002955 -0.018803)
 13:    134.62   0.000939    4.75  0.002177  (-0.008794  0.002148  0.045777)
 14:    162.12   0.000016    0.08  0.000030  (-0.003575  0.001672  0.003852)
 15:    176.44   0.001205    6.09  0.002132  ( 0.032195  0.014537 -0.029727)
 16:    191.76   0.001720    8.69  0.002799  (-0.047301  0.023371 -0.003983)
 17:    210.21   0.000140    0.71  0.000208  (-0.008438 -0.011077 -0.003816)
 18:    248.21   0.000399    2.02  0.000502  (-0.006389 -0.019677 -0.008614)
 19:    260.16   0.000201    1.02  0.000241  (-0.013245  0.008037 -0.001016)
 20:    269.29   0.001140    5.76  0.001321  ( 0.009378 -0.010022  0.033653)
 21:    289.24   0.001050    5.30  0.001132  ( 0.029930  0.008573 -0.012772)
 22:    304.62   0.002525   12.76  0.002586  ( 0.045384 -0.007774 -0.021592)
 23:    318.25   0.004959   25.06  0.004863  ( 0.037304 -0.058151 -0.009473)
 24:    334.89   0.001759    8.89  0.001639  (-0.001284  0.025128 -0.031722)
 25:    359.67   0.008591   43.42  0.007454  ( 0.067515 -0.035188 -0.040713)
 26:    362.16   0.003366   17.01  0.002900  ( 0.033445 -0.042206  0.000372)
 27:    384.13   0.003806   19.23  0.003092  ( 0.001385  0.053953  0.013379)
 28:    400.04   0.001282    6.48  0.001000  ( 0.007308  0.023935 -0.019328)
 29:    419.55   0.012009   60.69  0.008932  ( 0.030707  0.003682 -0.089308)
 30:    435.38   0.002318   11.71  0.001661  (-0.006012  0.005997 -0.039863)
 31:    451.33   0.006701   33.87  0.004633  ( 0.040530 -0.004864 -0.054471)
 32:    473.73   0.004605   23.27  0.003033  (-0.013760  0.047348 -0.024536)
 33:    478.49   0.006094   30.80  0.003974  ( 0.013950 -0.037145  0.048988)
 34:    502.29   0.022476  113.58  0.013963  (-0.048062  0.094514  0.052160)
 35:    516.17   0.036964  186.80  0.022348  ( 0.026627 -0.105154 -0.102866)
 36:    534.38   0.015033   75.97  0.008779  ( 0.042156  0.070692 -0.044769)
 37:    546.19   0.034326  173.47  0.019612  (-0.106178  0.027012  0.087227)
 38:    577.57   0.031579  159.59  0.017062  ( 0.125912 -0.028698 -0.019619)
 39:    621.65   0.248933  1258.01  0.124962  (-0.189632  0.140823  0.263003)
 40:    637.48   0.203058  1026.17  0.099402  (-0.113936 -0.061880  0.287388)
 41:    661.13   0.256459  1296.04  0.121052  ( 0.124019 -0.324040  0.025880)
 42:    664.34   0.055321  279.57  0.025986  ( 0.086459 -0.032895  0.132019)
 43:    682.13   0.044861  226.71  0.020523  (-0.012071  0.113547 -0.086515)
 44:    694.78   0.008619   43.56  0.003871  (-0.053863  0.030253 -0.007412)
 45:    704.96   0.049719  251.26  0.022009  (-0.020681  0.132838  0.062733)
 46:    711.12   0.071269  360.17  0.031275  ( 0.055866  0.021159 -0.166453)
 47:    721.24   0.087868  444.05  0.038019  (-0.006702  0.132907  0.142511)
 48:    734.71   0.025524  128.99  0.010841  ( 0.050561  0.003429 -0.090955)
 49:    749.10   0.015305   77.34  0.006376  ( 0.010468 -0.048146  0.062833)
 50:    794.07   0.078971  399.09  0.031035  ( 0.075669  0.151386  0.048899)
 51:    829.97   0.007707   38.95  0.002898  ( 0.017646  0.015443 -0.048457)
 52:    884.15   0.079682  402.68  0.028124  ( 0.091310 -0.135853 -0.036479)
 53:    920.16   0.026078  131.79  0.008844  ( 0.075878  0.043714 -0.034289)
 54:    941.81   0.046972  237.38  0.015564  ( 0.120046  0.015974 -0.029966)
 55:    960.89   0.056794  287.01  0.018445  (-0.000985 -0.083871 -0.106814)
 56:    990.90   0.059854  302.48  0.018850  (-0.083908  0.004363 -0.108584)
 57:   1012.83   0.040230  203.31  0.012395  ( 0.087769  0.065357  0.020501)
 58:   1034.53   0.000934    4.72  0.000282  ( 0.016749 -0.001036 -0.000478)
 59:   1053.77   0.040487  204.60  0.011990  (-0.033670  0.011198  0.103589)
 60:   1063.09   0.021754  109.94  0.006386  (-0.025896 -0.015682  0.073955)
 61:   1115.39   0.013478   68.11  0.003771  ( 0.022696 -0.043821 -0.036546)
 62:   1184.60   0.044183  223.28  0.011639  ( 0.065748 -0.085376 -0.005237)
 63:   1591.01   0.044864  226.72  0.008800  ( 0.082090 -0.041342 -0.018756)
 64:   1613.82   0.044918  227.00  0.008686  ( 0.042798 -0.082504  0.006877)
 65:   1631.54   0.169670  857.44  0.032453  ( 0.134479 -0.034896 -0.114675)
 66:   1652.53   0.068643  346.89  0.012963  ( 0.098086 -0.055229 -0.017073)
 67:   1681.92   0.035738  180.60  0.006631  (-0.004072 -0.072311  0.037220)
 68:   1696.07   0.282010  1425.16  0.051887  ( 0.069032 -0.206673 -0.066397)
 69:   1731.18   0.217111  1097.19  0.039137  ( 0.047756  0.043040 -0.187092)
 70:   1743.16   0.130143  657.69  0.023298  ( 0.130786 -0.078674 -0.001970)
 71:   1777.81   0.182572  922.64  0.032047  ( 0.026412  0.102710 -0.144223)
 72:   1807.75   0.123327  623.24  0.021289  ( 0.044871  0.138687 -0.006465)
 73:   1827.24   0.202650  1024.11  0.034609  ( 0.009699  0.039014  0.181640)
 74:   1869.02   0.017534   88.61  0.002928  (-0.051707 -0.005664 -0.014894)
 75:   1879.60   0.018954   95.78  0.003147  ( 0.050263 -0.016531  0.018631)
 76:   1880.82   0.010023   50.65  0.001663  ( 0.020435 -0.030467  0.017808)
 77:   1882.59   0.016671   84.25  0.002763  ( 0.026189 -0.007404  0.044975)
 78:   1887.04   0.086041  434.82  0.014229  ( 0.071803  0.095192  0.003406)
 79:   1899.30   0.022759  115.02  0.003739  (-0.029808  0.003601  0.053272)
 80:   1900.66   0.026742  135.14  0.004391  ( 0.061673  0.012507  0.020753)
 81:   1915.27   0.036302  183.46  0.005915  ( 0.072562 -0.024274 -0.007775)
 82:   1918.99   0.022693  114.68  0.003690  ( 0.007365 -0.008472  0.059702)
 83:   1920.99   0.025360  128.16  0.004120  (-0.032585 -0.051336 -0.020554)

--------------------------
THERMOCHEMISTRY AT 298.15K
--------------------------

Temperature         ...   298.15 K
Pressure            ...     1.00 atm
Total Mass          ...   210.04 AMU
Quasi RRHO          ...     True
Cut-Off Frequency   ...     1.00 cm^-1

Throughout the following assumptions are being made:
  (1) The electronic state is orbitally nondegenerate
  (2) There are no thermally accessible electronically excited states
  (3) Hindered rotations indicated by low frequency modes are not
      treated as such but are treated as vibrations and this may
      cause some error
  (4) All equations used are the standard statistical mechanics
      equations for an ideal gas
  (5) All vibrations are strictly harmonic

freq.      31.94  E(vib)   ...       0.55
freq.      52.45  E(vib)   ...       0.52
freq.      59.89  E(vib)   ...       0.51
freq.      74.77  E(vib)   ...       0.49
freq.      96.35  E(vib)   ...       0.47
freq.     119.99  E(vib)   ...       0.44
freq.     130.03  E(vib)   ...       0.43
freq.     134.62  E(vib)   ...       0.42
freq.     162.12  E(vib)   ...       0.39
freq.     176.44  E(vib)   ...       0.38
freq.     191.76  E(vib)   ...       0.36
freq.     210.21  E(vib)   ...       0.34
freq.     248.21  E(vib)   ...       0.31
freq.     260.16  E(vib)   ...       0.30
freq.     269.29  E(vib)   ...       0.29
freq.     289.24  E(vib)   ...       0.27
freq.     304.62  E(vib)   ...       0.26
freq.     318.25  E(vib)   ...       0.25
freq.     334.89  E(vib)   ...       0.24
freq.     359.67  E(vib)   ...       0.22
freq.     362.16  E(vib)   ...       0.22
freq.     384.13  E(vib)   ...       0.20
freq.     400.04  E(vib)   ...       0.19
freq.     419.55  E(vib)   ...       0.18
freq.     435.38  E(vib)   ...       0.17
freq.     451.33  E(vib)   ...       0.16
freq.     473.73  E(vib)   ...       0.15
freq.     478.49  E(vib)   ...       0.15
freq.     502.29  E(vib)   ...       0.14
freq.     516.17  E(vib)   ...       0.13
freq.     534.38  E(vib)   ...       0.13
freq.     546.19  E(vib)   ...       0.12
freq.     577.57  E(vib)   ...       0.11
freq.     621.65  E(vib)   ...       0.09
freq.     637.48  E(vib)   ...       0.09
freq.     661.13  E(vib)   ...       0.08
freq.     664.34  E(vib)   ...       0.08
freq.     682.13  E(vib)   ...       0.08
freq.     694.78  E(vib)   ...       0.07
freq.     704.96  E(vib)   ...       0.07
freq.     711.12  E(vib)   ...       0.07
freq.     721.24  E(vib)   ...       0.07
freq.     734.71  E(vib)   ...       0.06
freq.     749.10  E(vib)   ...       0.06
freq.     794.07  E(vib)   ...       0.05
freq.     829.97  E(vib)   ...       0.04
freq.     884.15  E(vib)   ...       0.04
freq.     920.16  E(vib)   ...       0.03
freq.     941.81  E(vib)   ...       0.03
freq.     960.89  E(vib)   ...       0.03
freq.     990.90  E(vib)   ...       0.02
freq.    1012.83  E(vib)   ...       0.02
freq.    1034.53  E(vib)   ...       0.02
freq.    1053.77  E(vib)   ...       0.02
freq.    1063.09  E(vib)   ...       0.02
freq.    1115.39  E(vib)   ...       0.01
freq.    1184.60  E(vib)   ...       0.01
freq.    1591.01  E(vib)   ...       0.00
freq.    1613.82  E(vib)   ...       0.00
freq.    1631.54  E(vib)   ...       0.00
freq.    1652.53  E(vib)   ...       0.00
freq.    1681.92  E(vib)   ...       0.00
freq.    1696.07  E(vib)   ...       0.00
freq.    1731.18  E(vib)   ...       0.00
freq.    1743.16  E(vib)   ...       0.00
freq.    1777.81  E(vib)   ...       0.00
freq.    1807.75  E(vib)   ...       0.00
freq.    1827.24  E(vib)   ...       0.00
freq.    1869.02  E(vib)   ...       0.00
freq.    1879.60  E(vib)   ...       0.00
freq.    1880.82  E(vib)   ...       0.00
freq.    1882.59  E(vib)   ...       0.00
freq.    1887.04  E(vib)   ...       0.00
freq.    1899.30  E(vib)   ...       0.00
freq.    1900.66  E(vib)   ...       0.00
freq.    1915.27  E(vib)   ...       0.00
freq.    1918.99  E(vib)   ...       0.00
freq.    1920.99  E(vib)   ...       0.00

------------
INNER ENERGY
------------

The inner energy is: U= E(el) + E(ZPE) + E(vib) + E(rot) + E(trans)
    E(el)   - is the total energy from the electronic structure calculation
              = E(kin-el) + E(nuc-el) + E(el-el) + E(nuc-nuc)
    E(ZPE)  - the the zero temperature vibrational energy from the frequency calculation
    E(vib)  - the the finite temperature correction to E(ZPE) due to population
              of excited vibrational states
    E(rot)  - is the rotational thermal energy
    E(trans)- is the translational thermal energy

Summary of contributions to the inner energy U:
Electronic energy                ...  -1708.64849400 Eh
Zero point energy                ...      0.15487769 Eh      97.19 kcal/mol
Thermal vibrational correction   ...      0.01700645 Eh      10.67 kcal/mol
Thermal rotational correction    ...      0.00141627 Eh       0.89 kcal/mol
Thermal translational correction ...      0.00141627 Eh       0.89 kcal/mol
-----------------------------------------------------------------------
Total thermal energy                  -1708.47377731 Eh

Summary of corrections to the electronic energy:
(perhaps to be used in another calculation)
Total thermal correction                  0.01983900 Eh      12.45 kcal/mol
Non-thermal (ZPE) correction              0.15487769 Eh      97.19 kcal/mol
-----------------------------------------------------------------------
Total correction                          0.17471669 Eh     109.64 kcal/mol

--------
ENTHALPY
--------

The enthalpy is H = U + kB*T
                kB is Boltzmann's constant
Total thermal energy              ...  -1708.47377731 Eh
Thermal Enthalpy correction       ...      0.00094421 Eh       0.59 kcal/mol
-----------------------------------------------------------------------
Total Enthalpy                    ...  -1708.47283310 Eh

Note: Only C1 symmetry has been detected, increase convergence thresholds
      if your molecule has a higher symmetry. Symmetry factor of 1.0 is
      used for the rotational entropy correction.

Note: Rotational entropy computed according to Herzberg
Infrared and Raman Spectra, Chapter V,1, Van Nostrand Reinhold, 1945
Point Group:  C1, Symmetry Number:   1
Rotational constants in cm-1:     0.024052     0.012921     0.009619

Vibrational entropy computed according to the QRRHO of S. Grimme
Chem.Eur.J. 2012 18 9955 using a reference frequency of 100.0 cm-1

-------
ENTROPY
-------

The entropy contributions are T*S = T*(S(el)+S(vib)+S(rot)+S(trans))
     S(el)   - electronic entropy

                             ****ORCA TERMINATED NORMALLY****
TOTAL RUN TIME: 0 days 0 hours 20 minutes 56 seconds 108 msec
