                         Program Version 6.1.0  -  RELEASE   -
|  1> # Geometry optimization for (AlH3)n cluster
|  2>
|  3> %pal nprocs 24  end
|  4>
|  5> %geom MaxIter 500 end
|  6>
|  7>
|  8> ! PBE def2-SV(P)
|  9> ! RKS	# closed shell for AlH3
| 10> ! D3    #  dispersion correction
| 11> ! gCP(DFT/SV(P))
| 12>
| 13>
| 14> ! NoPop # population analysis not necessary
| 15>
| 16> ! DEFGRID2
| 17> ! NormalSCF
| 18>
| 19> ! SmallPrint
| 20>
| 21>
| 22> * xyzFile 0 1 run.xyz # only maingroup elements H and Al so there should be no net spin
| 23>
| 24>                          ****END OF INPUT****

CARTESIAN COORDINATES (ANGSTROEM)
---------------------------------
  Zr    -0.175301    2.187269    1.599776
  Zr     0.333373   -2.173814   -1.108836
  Zr     2.026596   -1.096749    1.608388
  Zr    -1.856875    1.126689   -1.133236
  Zr     1.510229    0.961604   -1.754931
  Zr    -1.343213   -0.956090    2.205176
  O     -1.396660    0.631761    0.881934
  O      1.555219   -0.603995   -0.402872
  O      0.149219   -1.751896    0.986911
  O      0.026977    1.761691   -0.506019
  O     -0.292542   -0.209383   -1.806860
  O      0.448135    0.220798    2.286989
  O     -0.805213    2.196633    3.477271
  O     -1.773969    3.338410    1.339131
  O      1.636628    2.400636    2.465852
  O      0.750195    3.748078    0.599372
  O     -0.545555   -3.759630   -0.100243
  O     -1.502877   -2.389114   -1.914744
  O      1.955680   -3.299563   -0.863074
  O      0.927249   -2.202604   -2.992133
  O      1.752323   -1.647174    3.498225
  O      2.963655    0.478706    2.377865
  O      2.439554   -3.036994    1.397832
  O      3.761481   -0.965091    0.481785
  O     -3.589679    1.019203   -0.019032
  O     -2.245622    3.072549   -0.923925
  O     -2.809256   -0.452606   -1.881529
  O     -1.577658    1.674863   -3.021348
  O      0.692974    2.208193   -3.062706
  O      2.214392    2.710160   -0.922209
  O      1.894023   -0.114681   -3.363297
  O      3.475509    0.491923   -1.341656
  O     -3.309931   -0.543421    1.718111
  O     -1.804225    0.116057    3.789998
  O     -2.001294   -2.755155    1.451657
  O     -0.522589   -2.157185    3.557845
  C     -1.450464    1.306707    4.168920
  C     -2.310770    3.706467    0.211277
  C      2.697564    1.700374    2.715472
  C      1.730302    3.713144   -0.251334
  C     -1.514391   -3.745001    0.763782
  C     -2.562958   -1.690360   -2.170898
  C      2.495596   -3.671031    0.262316
  C      1.565760   -1.324124   -3.704270
  C      0.690804   -2.182554    4.025777
  C      4.158409   -0.244665   -0.520744
  C     -3.990677    0.230852    0.929258
  C     -0.520050    2.233871   -3.533723
  H     -3.358457   -2.218033   -2.688869
  H      3.058863   -4.606978    0.250952
  H      3.476607    2.212846    3.272408
  H     -2.880901    4.638276    0.220556
  H      1.860245   -1.638847   -4.705468
  H     -0.666573    2.785304   -4.464230
  H      2.226763    4.664730   -0.421073
  H      5.225802   -0.274385   -0.712563
  H     -1.995997   -4.704256    0.931609
  H     -5.062960    0.229037    1.094956
  H     -1.714276    1.586309    5.188841
  H      0.834573   -2.713859    4.967786
  Al    -5.237359   -3.136499    1.289731
  Al    -7.351354   -0.953622    2.657147
  Al    -3.868911   -3.305985    4.256455
  Al    -4.992256   -0.342241    4.764736
  Al    -2.658691   -1.945852    6.284699
  Al    -4.744680   -0.814993    7.824063
  Al    -4.846577    1.825628    7.161835
  H     -4.441185   -2.563463    0.029671
  H     -5.899444   -4.545074    0.939190
  H     -7.712745    0.234396    1.655135
  H     -8.658002   -1.683477    3.210490
  H     -6.359786   -2.038837    1.861973
  H     -4.229154   -3.320433    2.609284
  H     -3.816281   -4.912307    4.376890
  H     -2.601771   -2.264336    4.628822
  H     -3.300364   -1.652996    7.804316
  H     -3.498405   -0.737205    5.436412
  H     -3.853763   -3.082784    5.924616
  H     -1.233059   -1.196249    6.382703
  H     -4.401899    0.731982    8.340689
  H     -3.391429    2.408353    6.825647
  H     -6.406191    2.005510    7.490166
  H     -5.027086    1.071987    5.671546
  H     -6.450243   -0.352233    3.929739
  H     -4.860993   -1.929927    4.218002
  H     -4.332976    0.486505    3.560203
  H     -5.466599   -0.858832    6.296792
  H     -5.741380   -1.540528    8.854142

 Total Charge           Charge          ....    0
 Multiplicity           Mult            ....    1
 Number of Electrons    NEL             ....  508
 Basis Dimension        Dim             ....  924

ORBITAL ENERGIES
----------------

  NO   OCC          E(Eh)            E(eV)
   0   2.0000     -55.437644     -1508.5350
   1   2.0000     -55.410586     -1507.7987
   2   2.0000     -55.400729     -1507.5305
   3   2.0000     -55.398157     -1507.4605
   4   2.0000     -55.396468     -1507.4145
   5   2.0000     -55.375326     -1506.8392
   6   2.0000     -55.371779     -1506.7427
   7   2.0000     -18.790254      -511.3088
   8   2.0000     -18.789231      -511.2810
   9   2.0000     -18.788378      -511.2577
  10   2.0000     -18.788327      -511.2564
  11   2.0000     -18.787722      -511.2399
  12   2.0000     -18.786503      -511.2067
  13   2.0000     -18.786462      -511.2056
  14   2.0000     -18.786235      -511.1994
  15   2.0000     -18.783158      -511.1157
  16   2.0000     -18.783058      -511.1130
  17   2.0000     -18.781590      -511.0730
  18   2.0000     -18.780602      -511.0462
  19   2.0000     -18.777295      -510.9562
  20   2.0000     -18.777178      -510.9530
  21   2.0000     -18.773301      -510.8475
  22   2.0000     -18.772517      -510.8262
  23   2.0000     -18.772461      -510.8246
  24   2.0000     -18.772335      -510.8212
  25   2.0000     -18.769460      -510.7430
  26   2.0000     -18.767841      -510.6989
  27   2.0000     -18.767560      -510.6913
  28   2.0000     -18.766870      -510.6725
  29   2.0000     -18.766490      -510.6621
  30   2.0000     -18.765784      -510.6429
  31   2.0000     -18.675131      -508.1762
  32   2.0000     -18.674832      -508.1680
  33   2.0000     -18.671155      -508.0680
  34   2.0000     -18.668620      -507.9990
  35   2.0000     -18.668494      -507.9955
  36   2.0000     -18.667191      -507.9601
  37   2.0000     -10.050984      -273.5012
  38   2.0000     -10.048595      -273.4362
  39   2.0000     -10.046199      -273.3710
  40   2.0000     -10.043929      -273.3092
  41   2.0000     -10.041126      -273.2329
  42   2.0000     -10.038577      -273.1636
  43   2.0000     -10.035276      -273.0738
  44   2.0000     -10.030768      -272.9511
  45   2.0000     -10.029301      -272.9111
  46   2.0000     -10.025471      -272.8069
  47   2.0000     -10.025253      -272.8010
  48   2.0000     -10.024700      -272.7860
  49   2.0000      -3.991951      -108.6265
  50   2.0000      -3.964128      -107.8694
  51   2.0000      -3.957221      -107.6815
  52   2.0000      -3.951443      -107.5242
  53   2.0000      -3.945769      -107.3698
  54   2.0000      -3.930864      -106.9643
  55   2.0000      -3.925970      -106.8311
  56   2.0000      -2.598718       -70.7147
  57   2.0000      -2.598156       -70.6994
  58   2.0000      -2.595092       -70.6161
  59   2.0000      -2.572714       -70.0071
  60   2.0000      -2.570610       -69.9499
  61   2.0000      -2.566336       -69.8336
  62   2.0000      -2.565384       -69.8076
  63   2.0000      -2.564504       -69.7837
  64   2.0000      -2.560227       -69.6673
  65   2.0000      -2.557845       -69.6025
  66   2.0000      -2.556759       -69.5729
  67   2.0000      -2.553112       -69.4737
  68   2.0000      -2.552844       -69.4664
  69   2.0000      -2.552349       -69.4530
  70   2.0000      -2.548475       -69.3475
  71   2.0000      -2.538933       -69.0879
  72   2.0000      -2.536640       -69.0255
  73   2.0000      -2.534467       -68.9664
  74   2.0000      -2.532944       -68.9249
  75   2.0000      -2.531343       -68.8813
  76   2.0000      -2.528204       -68.7959
  77   2.0000      -1.975274       -53.7499
  78   2.0000      -1.974645       -53.7328
  79   2.0000      -1.971100       -53.6364
  80   2.0000      -1.968623       -53.5689
  81   2.0000      -1.966218       -53.5035
  82   2.0000      -1.965617       -53.4872
  83   2.0000      -1.171248       -31.8713
  84   2.0000      -1.169673       -31.8284
  85   2.0000      -1.169235       -31.8165
  86   2.0000      -1.167321       -31.7644
  87   2.0000      -1.165595       -31.7174
  88   2.0000      -1.164151       -31.6782
  89   2.0000      -1.162649       -31.6373
  90   2.0000      -1.161613       -31.6091
  91   2.0000      -1.160251       -31.5720
  92   2.0000      -1.159773       -31.5590
  93   2.0000      -1.158763       -31.5316
  94   2.0000      -1.158517       -31.5248
  95   2.0000      -1.155680       -31.4476
  96   2.0000      -1.152838       -31.3703
  97   2.0000      -1.150802       -31.3149
  98   2.0000      -1.147815       -31.2336
  99   2.0000      -1.143825       -31.1251
 100   2.0000      -1.142239       -31.0819
 101   2.0000      -0.987840       -26.8805
 102   2.0000      -0.983691       -26.7676
 103   2.0000      -0.983205       -26.7544
 104   2.0000      -0.980869       -26.6908
 105   2.0000      -0.978838       -26.6355
 106   2.0000      -0.975381       -26.5415
 107   2.0000      -0.970972       -26.4215
 108   2.0000      -0.965790       -26.2805
 109   2.0000      -0.963218       -26.2105
 110   2.0000      -0.960163       -26.1274
 111   2.0000      -0.958536       -26.0831
 112   2.0000      -0.957514       -26.0553
 113   2.0000      -0.913065       -24.8458
 114   2.0000      -0.910321       -24.7711
 115   2.0000      -0.908547       -24.7228
 116   2.0000      -0.908052       -24.7093
 117   2.0000      -0.905836       -24.6491
 118   2.0000      -0.902682       -24.5632
 119   2.0000      -0.899218       -24.4690
 120   2.0000      -0.894595       -24.3432
 121   2.0000      -0.893052       -24.3012
 122   2.0000      -0.890019       -24.2186
 123   2.0000      -0.888289       -24.1716
 124   2.0000      -0.887553       -24.1516
 125   2.0000      -0.756690       -20.5906
 126   2.0000      -0.748675       -20.3725
 127   2.0000      -0.739567       -20.1246
 128   2.0000      -0.732376       -19.9290
 129   2.0000      -0.726121       -19.7588
 130   2.0000      -0.722028       -19.6474
 131   2.0000      -0.570977       -15.5371
 132   2.0000      -0.567767       -15.4497
 133   2.0000      -0.566578       -15.4174
 134   2.0000      -0.565617       -15.3912
 135   2.0000      -0.563350       -15.3295
 136   2.0000      -0.559664       -15.2292
 137   2.0000      -0.557946       -15.1825
 138   2.0000      -0.552174       -15.0254
 139   2.0000      -0.549716       -14.9585
 140   2.0000      -0.547244       -14.8913
 141   2.0000      -0.545633       -14.8474
 142   2.0000      -0.544650       -14.8207
 143   2.0000      -0.543258       -14.7828
 144   2.0000      -0.495026       -13.4703
 145   2.0000      -0.475119       -12.9286
 146   2.0000      -0.472366       -12.8537
 147   2.0000      -0.471742       -12.8368
 148   2.0000      -0.470549       -12.8043
 149   2.0000      -0.469086       -12.7645
 150   2.0000      -0.467740       -12.7279
 151   2.0000      -0.466885       -12.7046
 152   2.0000      -0.465823       -12.6757
 153   2.0000      -0.464942       -12.6517
 154   2.0000      -0.464094       -12.6286
 155   2.0000      -0.463236       -12.6053
 156   2.0000      -0.461549       -12.5594
 157   2.0000      -0.458946       -12.4886
 158   2.0000      -0.458621       -12.4797
 159   2.0000      -0.457240       -12.4421
 160   2.0000      -0.456135       -12.4121
 161   2.0000      -0.453372       -12.3369
 162   2.0000      -0.452826       -12.3220
 163   2.0000      -0.449275       -12.2254
 164   2.0000      -0.448343       -12.2000
 165   2.0000      -0.446769       -12.1572
 166   2.0000      -0.445397       -12.1199
 167   2.0000      -0.442659       -12.0454
 168   2.0000      -0.441217       -12.0061
 169   2.0000      -0.438794       -11.9402
 170   2.0000      -0.434559       -11.8249
 171   2.0000      -0.427672       -11.6375
 172   2.0000      -0.423301       -11.5186
 173   2.0000      -0.415945       -11.3184
 174   2.0000      -0.414844       -11.2885
 175   2.0000      -0.410807       -11.1786
 176   2.0000      -0.404873       -11.0172
 177   2.0000      -0.399910       -10.8821
 178   2.0000      -0.397798       -10.8246
 179   2.0000      -0.393592       -10.7102
 180   2.0000      -0.391633       -10.6569
 181   2.0000      -0.385779       -10.4976
 182   2.0000      -0.382202       -10.4002
 183   2.0000      -0.379245       -10.3198
 184   2.0000      -0.376563       -10.2468
 185   2.0000      -0.375884       -10.2283
 186   2.0000      -0.361543        -9.8381
 187   2.0000      -0.356264        -9.6944
 188   2.0000      -0.331648        -9.0246
 189   2.0000      -0.328654        -8.9431
 190   2.0000      -0.327787        -8.9195
 191   2.0000      -0.326900        -8.8954
 192   2.0000      -0.325040        -8.8448
 193   2.0000      -0.323128        -8.7928
 194   2.0000      -0.320276        -8.7152
 195   2.0000      -0.319284        -8.6882
 196   2.0000      -0.317923        -8.6511
 197   2.0000      -0.315406        -8.5826
 198   2.0000      -0.314126        -8.5478
 199   2.0000      -0.312316        -8.4986
 200   2.0000      -0.310973        -8.4620
 201   2.0000      -0.310488        -8.4488
 202   2.0000      -0.306163        -8.3311
 203   2.0000      -0.303438        -8.2570
 204   2.0000      -0.302218        -8.2238
 205   2.0000      -0.300900        -8.1879
 206   2.0000      -0.299831        -8.1588
 207   2.0000      -0.298497        -8.1225
 208   2.0000      -0.297221        -8.0878
 209   2.0000      -0.296421        -8.0660
 210   2.0000      -0.294555        -8.0152
 211   2.0000      -0.292688        -7.9644
 212   2.0000      -0.289575        -7.8797
 213   2.0000      -0.287189        -7.8148
 214   2.0000      -0.285954        -7.7812
 215   2.0000      -0.283106        -7.7037
 216   2.0000      -0.282387        -7.6841
 217   2.0000      -0.281233        -7.6527
 218   2.0000      -0.280284        -7.6269
 219   2.0000      -0.278872        -7.5885
 220   2.0000      -0.278062        -7.5665
 221   2.0000      -0.275201        -7.4886
 222   2.0000      -0.275001        -7.4832
 223   2.0000      -0.272546        -7.4163
 224   2.0000      -0.271599        -7.3906
 225   2.0000      -0.271113        -7.3774
 226   2.0000      -0.269321        -7.3286
 227   2.0000      -0.268812        -7.3148
 228   2.0000      -0.267284        -7.2732
 229   2.0000      -0.264457        -7.1962
 230   2.0000      -0.262707        -7.1486
 231   2.0000      -0.261944        -7.1279
 232   2.0000      -0.260674        -7.0933
 233   2.0000      -0.259619        -7.0646
 234   2.0000      -0.258129        -7.0240
 235   2.0000      -0.255103        -6.9417
 236   2.0000      -0.250340        -6.8121
 237   2.0000      -0.246687        -6.7127
 238   2.0000      -0.244765        -6.6604
 239   2.0000      -0.240854        -6.5540
 240   2.0000      -0.238366        -6.4863
 241   2.0000      -0.236774        -6.4430
 242   2.0000      -0.233437        -6.3521
 243   2.0000      -0.225628        -6.1396
 244   2.0000      -0.224479        -6.1084
 245   2.0000      -0.219225        -5.9654
 246   2.0000      -0.215692        -5.8693
 247   2.0000      -0.210818        -5.7367
 248   2.0000      -0.205719        -5.5979
 249   2.0000      -0.181215        -4.9311
 250   2.0000      -0.177621        -4.8333
 251   2.0000      -0.153348        -4.1728
 252   2.0000      -0.147513        -4.0140
 253   2.0000      -0.143330        -3.9002
 254   0.0000       0.128020         3.4836
 255   0.0000       0.148192         4.0325
 256   0.0000       0.150335         4.0908
 257   0.0000       0.153443         4.1754
 258   0.0000       0.161923         4.4061

-------
TIMINGS
-------

Dispersion correction           -0.193362017
FINAL SINGLE POINT ENERGY     -4707.853849630979

DIPOLE MOMENT
-------------

Method             : SCF
Type of density    : Electron Density
Multiplicity       :   1
Irrep              :   0
Energy             : -4708.1596962444054952 Eh
Basis              : AO
                                X                 Y                 Z
Electronic contribution:    329.673205244      84.087564901    -307.289015509
Nuclear contribution   :   -328.588565279     -83.797087025     309.265628488
                        -----------------------------------------
Total Dipole Moment    :      1.084639965       0.290477876       1.976612979
                        -----------------------------------------
Magnitude (a.u.)       :      2.273283994
Magnitude (Debye)      :      5.778228710

Rotational constants in cm-1:             0.001668             0.000940             0.000921
Rotational constants in MHz :            49.991749            28.187425            27.625043

                             ****ORCA TERMINATED NORMALLY****
TOTAL RUN TIME: 0 days 0 hours 8 minutes 44 seconds 110 msec
