                         Program Version 6.1.0  -  RELEASE   -
|  1> # Geometry optimization for (AlH3)n cluster
|  2>
|  3> %pal nprocs 24  end
|  4>
|  5> %geom MaxIter 500 end
|  6>
|  7> %elprop Polar 1 end # invoke raman
|  8>
|  9> ! PBEh-3c
| 10> ! RKS	# closed shell for AlH3
| 11> ! Freq 	# Frequency analysis to check the stabiltity of the structures
| 12>
| 13>
| 14> ! NoPop # population analysis not necessary
| 15>
| 16> ! DEFGRID3
| 17> ! ExtremeSCF
| 18> ! VeryTightOpt
| 19>
| 20>
| 21> ! SmallPrint
| 22>
| 23>
| 24> * xyzFile 0 1 start.xyz # only maingroup elements H and Al so there should be no net spin
| 25>
| 26>                          ****END OF INPUT****
 Total Charge           Charge          ....    0
 Multiplicity           Mult            ....    1
 Number of Electrons    NEL             ....   16
Dispersion correction           -0.000533367
FINAL SINGLE POINT ENERGY      -243.863254065693
Dispersion correction             ... done (  0.1 sec)
Dispersion correction           -0.000533888
FINAL SINGLE POINT ENERGY      -243.863382245206
Dispersion correction             ... done (  0.1 sec)
Dispersion correction           -0.000534839
FINAL SINGLE POINT ENERGY      -243.863467295180
Dispersion correction             ... done (  0.1 sec)
Dispersion correction           -0.000534808
FINAL SINGLE POINT ENERGY      -243.863467385336
Dispersion correction             ... done (  0.1 sec)
                    ***********************HURRAY********************

CARTESIAN COORDINATES (ANGSTROEM)
---------------------------------
  Al    -1.365109    0.622413   -0.208482
  H     -0.547088    0.416899    1.126635
  H     -1.298325    2.003873   -0.970740
  H     -2.249928   -0.553535   -0.781343

 Multiplicity           Mult            ....    1
 Number of Electrons    NEL             ....   16
 Basis Dimension        Dim             ....   24

ORBITAL ENERGIES
----------------

  NO   OCC          E(Eh)            E(eV)
   0   2.0000     -56.603572     -1540.2615
   1   2.0000      -4.348581      -118.3309
   2   2.0000      -2.842298       -77.3429
   3   2.0000      -2.833408       -77.1009
   4   2.0000      -2.833407       -77.1009
   5   2.0000      -0.473893       -12.8953
   6   2.0000      -0.351404        -9.5622
   7   2.0000      -0.351404        -9.5622
   8   0.0000      -0.046989        -1.2786
   9   0.0000       0.093486         2.5439
  10   0.0000       0.103905         2.8274
  11   0.0000       0.103909         2.8275
  12   0.0000       0.123884         3.3711

-------
TIMINGS
-------

Dispersion correction           -0.000534809
FINAL SINGLE POINT ENERGY      -243.863467385306

DIPOLE MOMENT
-------------

Method             : SCF
Type of density    : Electron Density
Multiplicity       :   1
Irrep              :   0
Energy             :  -243.8676061590212214 Eh
Basis              : AO
                                X                 Y                 Z
Electronic contribution:      0.000034158       0.000010156       0.000006244
Nuclear contribution   :     -0.000013230      -0.000002601      -0.000002359
                        -----------------------------------------
Total Dipole Moment    :      0.000020927       0.000007555       0.000003885
                        -----------------------------------------
Magnitude (a.u.)       :      0.000022586
Magnitude (Debye)      :      0.000057409

VIBRATIONAL FREQUENCIES
-----------------------

Scaling factor for frequencies =  1.000000000  (already applied!)

     0:       0.00 cm**-1
     1:       0.00 cm**-1
     2:       0.00 cm**-1
     3:       0.00 cm**-1
     4:       0.00 cm**-1
     5:       0.00 cm**-1
     6:     725.06 cm**-1
     7:     805.54 cm**-1
     8:     805.54 cm**-1
     9:    1989.04 cm**-1
    10:    1998.61 cm**-1
    11:    1998.61 cm**-1

IR SPECTRUM
-----------

 Mode   freq       eps      Int      T**2         TX        TY        TZ
       cm**-1   L/(mol*cm) km/mol    a.u.
----------------------------------------------------------------------------
  6:    725.06   0.077314  390.71  0.033276  ( 0.142550 -0.060194 -0.096602)
  7:    805.54   0.045057  227.70  0.017455  (-0.021201  0.094319 -0.090052)
  8:    805.54   0.045057  227.70  0.017455  (-0.079661 -0.081602 -0.066709)
  9:   1989.04   0.000000    0.00  0.000000  (-0.000014 -0.000011 -0.000012)
 10:   1998.61   0.048653  245.87  0.007597  ( 0.016804 -0.059225  0.061698)
 11:   1998.61   0.048656  245.88  0.007597  (-0.051726 -0.057113 -0.040738)

--------------------------
THERMOCHEMISTRY AT 298.15K
--------------------------

Temperature         ...   298.15 K
Pressure            ...     1.00 atm
Total Mass          ...    30.01 AMU
Quasi RRHO          ...     True
Cut-Off Frequency   ...     1.00 cm^-1

Throughout the following assumptions are being made:
  (1) The electronic state is orbitally nondegenerate
  (2) There are no thermally accessible electronically excited states
  (3) Hindered rotations indicated by low frequency modes are not
      treated as such but are treated as vibrations and this may
      cause some error
  (4) All equations used are the standard statistical mechanics
      equations for an ideal gas
  (5) All vibrations are strictly harmonic

freq.     725.06  E(vib)   ...       0.06
freq.     805.54  E(vib)   ...       0.05
freq.     805.54  E(vib)   ...       0.05
freq.    1989.04  E(vib)   ...       0.00
freq.    1998.61  E(vib)   ...       0.00
freq.    1998.61  E(vib)   ...       0.00

------------
INNER ENERGY
------------

The inner energy is: U= E(el) + E(ZPE) + E(vib) + E(rot) + E(trans)
    E(el)   - is the total energy from the electronic structure calculation
              = E(kin-el) + E(nuc-el) + E(el-el) + E(nuc-nuc)
    E(ZPE)  - the the zero temperature vibrational energy from the frequency calculation
    E(vib)  - the the finite temperature correction to E(ZPE) due to population
              of excited vibrational states
    E(rot)  - is the rotational thermal energy
    E(trans)- is the translational thermal energy

Summary of contributions to the inner energy U:
Electronic energy                ...   -243.86346739 Eh
Zero point energy                ...      0.01895982 Eh      11.90 kcal/mol
Thermal vibrational correction   ...      0.00025844 Eh       0.16 kcal/mol
Thermal rotational correction    ...      0.00141627 Eh       0.89 kcal/mol
Thermal translational correction ...      0.00141627 Eh       0.89 kcal/mol
-----------------------------------------------------------------------
Total thermal energy                   -243.84141658 Eh

Summary of corrections to the electronic energy:
(perhaps to be used in another calculation)
Total thermal correction                  0.00309099 Eh       1.94 kcal/mol
Non-thermal (ZPE) correction              0.01895982 Eh      11.90 kcal/mol
-----------------------------------------------------------------------
Total correction                          0.02205081 Eh      13.84 kcal/mol

--------
ENTHALPY
--------

The enthalpy is H = U + kB*T
                kB is Boltzmann's constant
Total thermal energy              ...   -243.84141658 Eh
Thermal Enthalpy correction       ...      0.00094421 Eh       0.59 kcal/mol
-----------------------------------------------------------------------
Total Enthalpy                    ...   -243.84047237 Eh

Note: Rotational entropy computed according to Herzberg
Infrared and Raman Spectra, Chapter V,1, Van Nostrand Reinhold, 1945
Point Group:  D3h, Symmetry Number:   6
Rotational constants in cm-1:     4.470573     4.470524     2.235274

Vibrational entropy computed according to the QRRHO of S. Grimme
Chem.Eur.J. 2012 18 9955 using a reference frequency of 100.0 cm-1

-------
ENTROPY
-------

The entropy contributions are T*S = T*(S(el)+S(vib)+S(rot)+S(trans))
     S(el)   - electronic entropy
     S(vib)  - vibrational entropy
     S(rot)  - rotational entropy
     S(trans)- translational entropy
The entropies will be listed as multiplied by the temperature to get
units of energy

Electronic entropy                ...      0.00000000 Eh      0.00 kcal/mol
Vibrational entropy               ...      0.00032696 Eh      0.21 kcal/mol
Rotational entropy                ...      0.00602541 Eh      3.78 kcal/mol
Translational entropy             ...      0.01716637 Eh     10.77 kcal/mol
-----------------------------------------------------------------------
Final entropy term                ...      0.02351874 Eh     14.76 kcal/mol

In case the symmetry of your molecule has not been determined correctly
or in case you have a reason to use a different symmetry number we print
out the resulting rotational entropy values for sn=1,12:

 non-linear molecules -----------------------------------
|  sn= 1 | S(rot)=       0.00771716 Eh      4.84 kcal/mol|
|  sn= 2 | S(rot)=       0.00706270 Eh      4.43 kcal/mol|
|  sn= 3 | S(rot)=       0.00667987 Eh      4.19 kcal/mol|
|  sn= 4 | S(rot)=       0.00640824 Eh      4.02 kcal/mol|
|  sn= 5 | S(rot)=       0.00619756 Eh      3.89 kcal/mol|
|  sn= 6 | S(rot)=       0.00602541 Eh      3.78 kcal/mol|
|  sn= 7 | S(rot)=       0.00587986 Eh      3.69 kcal/mol|
|  sn= 8 | S(rot)=       0.00575379 Eh      3.61 kcal/mol|
|  sn= 9 | S(rot)=       0.00564258 Eh      3.54 kcal/mol|
|  sn=10 | S(rot)=       0.00554310 Eh      3.48 kcal/mol|
|  sn=11 | S(rot)=       0.00545311 Eh      3.42 kcal/mol|
|  sn=12 | S(rot)=       0.00537095 Eh      3.37 kcal/mol|
 linear molecules ---------------------------------------
|  Dinfh | S(rot)=       0.00456634 Eh      2.87 kcal/mol|
|  Cinfv | S(rot)=       0.00522080 Eh      3.28 kcal/mol|
 --------------------------------------------------------

-------------------
GIBBS FREE ENERGY
-------------------

The Gibbs free energy is G = H - T*S

Total enthalpy                    ...   -243.84047237 Eh
Total entropy correction          ...     -0.02351874 Eh    -14.76 kcal/mol
-----------------------------------------------------------------------
Final Gibbs free energy         ...   -243.86399112 Eh

For completeness - the Gibbs free energy minus the electronic energy
G-E(el)                           ...     -0.00052373 Eh     -0.33 kcal/mol

                             ****ORCA TERMINATED NORMALLY****
TOTAL RUN TIME: 0 days 0 hours 0 minutes 52 seconds 779 msec
