                         Program Version 6.1.0  -  RELEASE   -
|  1> # Geometry optimization for (AlH3)n cluster
|  2>
|  3> %pal nprocs 24  end
|  4>
|  5> %geom MaxIter 500 end
|  6>
|  7> %cpcm
|  8> 	epsilon 1.95778548766667
|  9> end
| 10>
| 11> %elprop Polar 1 end # invoke raman
| 12>
| 13> ! PBEh-3c
| 14> ! RKS	# closed shell for AlH3
| 15> ! Freq 	# Frequency analysis to check the stabiltity of the structures
| 16>
| 17>
| 18> ! NoPop # population analysis not necessary
| 19>
| 20> ! DEFGRID3
| 21> ! ExtremeSCF
| 22> ! VeryTightOpt
| 23>
| 24>
| 25> ! SmallPrint
| 26>
| 27>
| 28> * xyzFile 0 1 start.xyz # only maingroup elements H and Al so there should be no net spin
| 29>
| 30>                          ****END OF INPUT****
 Total Charge           Charge          ....    0
 Multiplicity           Mult            ....    1
 Number of Electrons    NEL             ....   80
Dispersion correction           -0.009506540
FINAL SINGLE POINT ENERGY     -1219.488683694456
Dispersion correction             ... done (  0.2 sec)
Dispersion correction           -0.009518226
FINAL SINGLE POINT ENERGY     -1219.489457000191
Dispersion correction             ... done (  0.1 sec)
Dispersion correction           -0.009544864
FINAL SINGLE POINT ENERGY     -1219.490529059018
Dispersion correction             ... done (  0.1 sec)
FINAL SINGLE POINT ENERGY     -1219.490679101688
FINAL SINGLE POINT ENERGY     -1219.491201473923
FINAL SINGLE POINT ENERGY     -1219.491444976458
FINAL SINGLE POINT ENERGY     -1219.491652026343
FINAL SINGLE POINT ENERGY     -1219.491858605259
FINAL SINGLE POINT ENERGY     -1219.492007566339
FINAL SINGLE POINT ENERGY     -1219.492082254638
FINAL SINGLE POINT ENERGY     -1219.492365352343
FINAL SINGLE POINT ENERGY     -1219.492365406359
FINAL SINGLE POINT ENERGY     -1219.492365439948
FINAL SINGLE POINT ENERGY     -1219.492365466451
FINAL SINGLE POINT ENERGY     -1219.492365493014
FINAL SINGLE POINT ENERGY     -1219.492365511796
FINAL SINGLE POINT ENERGY     -1219.492365521450
Dispersion correction             ... done (  0.1 sec)
Dispersion correction           -0.009179092
FINAL SINGLE POINT ENERGY     -1219.492365527967
Dispersion correction             ... done (  0.1 sec)
Dispersion correction           -0.009179038
FINAL SINGLE POINT ENERGY     -1219.492365533051
Dispersion correction             ... done (  0.1 sec)
                    ***********************HURRAY********************

CARTESIAN COORDINATES (ANGSTROEM)
---------------------------------
  Al    -0.536685    0.941448    2.945544
  Al     0.137268   -0.422468    0.294581
  H     -0.422655   -2.021734    0.325471
  H     -0.332137    0.186184   -1.075254
  H     -0.901139    0.089878    1.511896
  H     -1.912106    0.977154    3.713444
  H      0.432577   -0.209563    3.641106
  H      1.591320   -0.447299    0.911487
  Al     0.033567   -3.312062    1.315648
  H      0.217160   -2.323554    2.677130
  H     -1.268351   -4.153822    1.572846
  H      0.347751    2.177102    2.525860
  Al     1.219612   -1.741840    3.873610
  H      0.443118   -1.760531    5.388694
  H      2.717170   -1.352720    3.645016
  H      1.459862   -3.817831    0.890236
  Al     0.675925   -3.438685    5.807200
  H      1.699358   -3.457856    7.001393
  H      1.465127   -3.508243    4.330570
  H     -0.740533   -4.118577    5.713512

 Multiplicity           Mult            ....    1
 Number of Electrons    NEL             ....   80
 Basis Dimension        Dim             ....  120

ORBITAL ENERGIES
----------------

  NO   OCC          E(Eh)            E(eV)
   0   2.0000     -56.649028     -1541.4984
   1   2.0000     -56.623542     -1540.8049
   2   2.0000     -56.619669     -1540.6995
   3   2.0000     -56.613164     -1540.5225
   4   2.0000     -56.603738     -1540.2660
   5   2.0000      -4.383363      -119.2774
   6   2.0000      -4.363834      -118.7460
   7   2.0000      -4.360790      -118.6631
   8   2.0000      -4.353637      -118.4685
   9   2.0000      -4.347207      -118.2935
  10   2.0000      -2.873677       -78.1967
  11   2.0000      -2.872928       -78.1763
  12   2.0000      -2.869954       -78.0954
  13   2.0000      -2.854930       -77.6866
  14   2.0000      -2.852932       -77.6322
  15   2.0000      -2.851605       -77.5961
  16   2.0000      -2.849929       -77.5505
  17   2.0000      -2.848566       -77.5134
  18   2.0000      -2.845806       -77.4383
  19   2.0000      -2.844567       -77.4046
  20   2.0000      -2.842633       -77.3520
  21   2.0000      -2.838768       -77.2468
  22   2.0000      -2.838527       -77.2402
  23   2.0000      -2.835679       -77.1627
  24   2.0000      -2.832248       -77.0694
  25   2.0000      -0.608823       -16.5669
  26   2.0000      -0.566229       -15.4079
  27   2.0000      -0.527865       -14.3639
  28   2.0000      -0.494182       -13.4474
  29   2.0000      -0.437659       -11.9093
  30   2.0000      -0.430568       -11.7163
  31   2.0000      -0.398928       -10.8554
  32   2.0000      -0.394035       -10.7222
  33   2.0000      -0.385494       -10.4898
  34   2.0000      -0.378289       -10.2938
  35   2.0000      -0.369774       -10.0621
  36   2.0000      -0.361276        -9.8308
  37   2.0000      -0.358084        -9.7440
  38   2.0000      -0.351650        -9.5689
  39   2.0000      -0.348709        -9.4888
  40   0.0000      -0.019780        -0.5382
  41   0.0000      -0.005316        -0.1446
  42   0.0000      -0.002085        -0.0567
  43   0.0000       0.016258         0.4424
  44   0.0000       0.026792         0.7291

-------
TIMINGS
-------

Dispersion correction           -0.009179076
FINAL SINGLE POINT ENERGY     -1219.492365537412

DIPOLE MOMENT
-------------

Method             : SCF
Type of density    : Electron Density
Multiplicity       :   1
Irrep              :   0
Energy             : -1219.5185436282663431 Eh
Basis              : AO
                                X                 Y                 Z
Electronic contribution:     -0.476010254      -0.349649006      -0.233588393
Nuclear contribution   :      0.181324129       0.156805652       0.055638902
                        -----------------------------------------
Total Dipole Moment    :     -0.294686125      -0.192843354      -0.177949491
                        -----------------------------------------
Magnitude (a.u.)       :      0.394581415
Magnitude (Debye)      :      1.002946250

VIBRATIONAL FREQUENCIES
-----------------------

Scaling factor for frequencies =  1.000000000  (already applied!)

     0:       0.00 cm**-1
     1:       0.00 cm**-1
     2:       0.00 cm**-1
     3:       0.00 cm**-1
     4:       0.00 cm**-1
     5:       0.00 cm**-1
     6:      35.21 cm**-1
     7:      45.46 cm**-1
     8:      50.72 cm**-1
     9:      87.76 cm**-1
    10:     107.18 cm**-1
    11:     124.01 cm**-1
    12:     172.89 cm**-1
    13:     179.19 cm**-1
    14:     216.73 cm**-1
    15:     231.53 cm**-1
    16:     285.41 cm**-1
    17:     288.20 cm**-1
    18:     356.74 cm**-1
    19:     364.18 cm**-1
    20:     386.73 cm**-1
    21:     400.15 cm**-1
    22:     426.15 cm**-1
    23:     453.69 cm**-1
    24:     483.78 cm**-1
    25:     504.11 cm**-1
    26:     555.77 cm**-1
    27:     577.97 cm**-1
    28:     591.53 cm**-1
    29:     673.96 cm**-1
    30:     685.47 cm**-1
    31:     696.83 cm**-1
    32:     701.06 cm**-1
    33:     720.20 cm**-1
    34:     731.76 cm**-1
    35:     759.07 cm**-1
    36:     765.29 cm**-1
    37:     789.91 cm**-1
    38:     820.96 cm**-1
    39:     874.72 cm**-1
    40:     947.97 cm**-1
    41:    1095.12 cm**-1
    42:    1112.87 cm**-1
    43:    1125.64 cm**-1
    44:    1444.43 cm**-1
    45:    1526.28 cm**-1
    46:    1669.45 cm**-1
    47:    1816.42 cm**-1
    48:    1892.04 cm**-1
    49:    1929.26 cm**-1
    50:    1984.97 cm**-1
    51:    1994.58 cm**-1
    52:    1998.81 cm**-1
    53:    2001.19 cm**-1
    54:    2012.02 cm**-1
    55:    2012.90 cm**-1
    56:    2020.58 cm**-1
    57:    2021.27 cm**-1
    58:    2037.41 cm**-1
    59:    2085.18 cm**-1

IR SPECTRUM
-----------

 Mode   freq       eps      Int      T**2         TX        TY        TZ
       cm**-1   L/(mol*cm) km/mol    a.u.
----------------------------------------------------------------------------
  6:     35.21   0.000093    0.47  0.000820  (-0.020456  0.003219 -0.019776)
  7:     45.46   0.000086    0.44  0.000592  (-0.018170  0.005441 -0.015251)
  8:     50.72   0.000372    1.88  0.002290  (-0.043638 -0.014866  0.012831)
  9:     87.76   0.000513    2.59  0.001824  ( 0.032277 -0.021263  0.018176)
 10:    107.18   0.000097    0.49  0.000283  (-0.007850 -0.004075 -0.014311)
 11:    124.01   0.000162    0.82  0.000408  ( 0.000170  0.019292 -0.005973)
 12:    172.89   0.001323    6.69  0.002388  ( 0.035967 -0.026738  0.019475)
 13:    179.19   0.000491    2.48  0.000855  ( 0.017811  0.006176  0.022346)
 14:    216.73   0.001681    8.50  0.002421  ( 0.014471  0.003597  0.046889)
 15:    231.53   0.000776    3.92  0.001045  (-0.012127  0.004393 -0.029650)
 16:    285.41   0.002912   14.71  0.003184  (-0.003105  0.047485 -0.030316)
 17:    288.20   0.004308   21.77  0.004665  ( 0.038139 -0.009832  0.055797)
 18:    356.74   0.001527    7.72  0.001336  ( 0.012590 -0.015307  0.030710)
 19:    364.18   0.004062   20.53  0.003481  (-0.007607 -0.031556  0.049270)
 20:    386.73   0.009456   47.79  0.007631  ( 0.065758 -0.019908  0.053946)
 21:    400.15   0.001518    7.67  0.001184  ( 0.024651  0.003388  0.023760)
 22:    426.15   0.001345    6.80  0.000985  (-0.005004  0.030265  0.006606)
 23:    453.69   0.001544    7.80  0.001062  ( 0.016978  0.011072  0.025520)
 24:    483.78   0.018916   95.59  0.012202  (-0.018003  0.023986 -0.106312)
 25:    504.11   0.021273  107.51  0.013169  (-0.017891 -0.010078  0.112905)
 26:    555.77   0.023426  118.39  0.013154  (-0.044381 -0.053984 -0.090939)
 27:    577.97   0.039357  198.90  0.021250  ( 0.070451 -0.101824  0.076933)
 28:    591.53   0.069542  351.44  0.036687  ( 0.043043 -0.186131 -0.013772)
 29:    673.96   0.183634  928.01  0.085028  (-0.037250  0.247442 -0.149711)
 30:    685.47   0.240709  1216.45  0.109583  (-0.060660  0.230591  0.229634)
 31:    696.83   0.023217  117.33  0.010397  ( 0.049688 -0.079993  0.039111)
 32:    701.06   0.152944  772.92  0.068080  (-0.099610 -0.115419  0.211747)
 33:    720.20   0.015060   76.11  0.006526  ( 0.029757  0.065635 -0.036501)
 34:    731.76   0.021275  107.51  0.009073  (-0.022811 -0.045270  0.080641)
 35:    759.07   0.124038  626.84  0.050993  ( 0.049889 -0.035520  0.217354)
 36:    765.29   0.041710  210.79  0.017008  ( 0.060220 -0.099159  0.059577)
 37:    789.91   0.053087  268.28  0.020972  ( 0.024976  0.142300  0.009975)
 38:    820.96   0.008076   40.81  0.003070  ( 0.012797 -0.025873 -0.047293)
 39:    874.72   0.078827  398.36  0.028122  (-0.149436 -0.058764 -0.048353)
 40:    947.97   0.042937  216.99  0.014135  (-0.096995  0.051324 -0.045745)
 41:   1095.12   0.011637   58.81  0.003316  ( 0.008166  0.020466  0.053202)
 42:   1112.87   0.064508  326.00  0.018089  ( 0.119366  0.027376  0.055599)
 43:   1125.64   0.103689  524.00  0.028746  (-0.039252  0.163936 -0.018171)
 44:   1444.43   0.061601  311.31  0.013309  (-0.044363  0.106209  0.007762)
 45:   1526.28   0.220639  1115.02  0.045112  ( 0.017301  0.118764 -0.175236)
 46:   1669.45   0.085528  432.22  0.015987  (-0.027936 -0.040750  0.116389)
 47:   1816.42   0.094587  478.01  0.016250  (-0.015265  0.119362  0.042070)
 48:   1892.04   0.172176  870.11  0.028398  (-0.031941 -0.067648  0.151001)
 49:   1929.26   0.384003  1940.59  0.062113  ( 0.064731 -0.230872 -0.067980)
 50:   1984.97   0.013474   68.09  0.002118  ( 0.019938 -0.031677  0.026782)
 51:   1994.58   0.072231  365.03  0.011301  (-0.012056  0.016170 -0.104375)
 52:   1998.81   0.020713  104.67  0.003234  (-0.055151 -0.012092  0.006773)
 53:   2001.19   0.046176  233.35  0.007201  (-0.069797 -0.047372 -0.009212)
 54:   2012.02   0.024145  122.02  0.003745  ( 0.038157  0.030233  0.037078)
 55:   2012.90   0.023319  117.84  0.003615  ( 0.045296 -0.023171  0.032039)
 56:   2020.58   0.049732  251.33  0.007681  ( 0.082802  0.013099 -0.025555)
 57:   2021.27   0.053306  269.39  0.008230  ( 0.085327 -0.015766  0.026469)
 58:   2037.41   0.067466  340.95  0.010334  ( 0.074510  0.052970  0.044452)
 59:   2085.18   0.137287  693.79  0.020546  (-0.075241  0.031094 -0.117975)

--------------------------
THERMOCHEMISTRY AT 298.15K
--------------------------

Temperature         ...   298.15 K
Pressure            ...     1.00 atm
Total Mass          ...   150.03 AMU
Quasi RRHO          ...     True
Cut-Off Frequency   ...     1.00 cm^-1

Throughout the following assumptions are being made:
  (1) The electronic state is orbitally nondegenerate
  (2) There are no thermally accessible electronically excited states
  (3) Hindered rotations indicated by low frequency modes are not
      treated as such but are treated as vibrations and this may
      cause some error
  (4) All equations used are the standard statistical mechanics
      equations for an ideal gas
  (5) All vibrations are strictly harmonic

freq.      35.21  E(vib)   ...       0.54
freq.      45.46  E(vib)   ...       0.53
freq.      50.72  E(vib)   ...       0.52
freq.      87.76  E(vib)   ...       0.48
freq.     107.18  E(vib)   ...       0.45
freq.     124.01  E(vib)   ...       0.43
freq.     172.89  E(vib)   ...       0.38
freq.     179.19  E(vib)   ...       0.37
freq.     216.73  E(vib)   ...       0.34
freq.     231.53  E(vib)   ...       0.32
freq.     285.41  E(vib)   ...       0.28
freq.     288.20  E(vib)   ...       0.27
freq.     356.74  E(vib)   ...       0.22
freq.     364.18  E(vib)   ...       0.22
freq.     386.73  E(vib)   ...       0.20
freq.     400.15  E(vib)   ...       0.19
freq.     426.15  E(vib)   ...       0.18
freq.     453.69  E(vib)   ...       0.16
freq.     483.78  E(vib)   ...       0.15
freq.     504.11  E(vib)   ...       0.14
freq.     555.77  E(vib)   ...       0.12
freq.     577.97  E(vib)   ...       0.11
freq.     591.53  E(vib)   ...       0.10
freq.     673.96  E(vib)   ...       0.08
freq.     685.47  E(vib)   ...       0.07
freq.     696.83  E(vib)   ...       0.07
freq.     701.06  E(vib)   ...       0.07
freq.     720.20  E(vib)   ...       0.07
freq.     731.76  E(vib)   ...       0.06
freq.     759.07  E(vib)   ...       0.06
freq.     765.29  E(vib)   ...       0.06
freq.     789.91  E(vib)   ...       0.05
freq.     820.96  E(vib)   ...       0.05
freq.     874.72  E(vib)   ...       0.04
freq.     947.97  E(vib)   ...       0.03
freq.    1095.12  E(vib)   ...       0.02
freq.    1112.87  E(vib)   ...       0.01
freq.    1125.64  E(vib)   ...       0.01
freq.    1444.43  E(vib)   ...       0.00
freq.    1526.28  E(vib)   ...       0.00
freq.    1669.45  E(vib)   ...       0.00
freq.    1816.42  E(vib)   ...       0.00
freq.    1892.04  E(vib)   ...       0.00
freq.    1929.26  E(vib)   ...       0.00
freq.    1984.97  E(vib)   ...       0.00
freq.    1994.58  E(vib)   ...       0.00
freq.    1998.81  E(vib)   ...       0.00
freq.    2001.19  E(vib)   ...       0.00
freq.    2012.02  E(vib)   ...       0.00
freq.    2012.90  E(vib)   ...       0.00
freq.    2020.58  E(vib)   ...       0.00
freq.    2021.27  E(vib)   ...       0.00
freq.    2037.41  E(vib)   ...       0.00
freq.    2085.18  E(vib)   ...       0.00

------------
INNER ENERGY
------------

The inner energy is: U= E(el) + E(ZPE) + E(vib) + E(rot) + E(trans)
    E(el)   - is the total energy from the electronic structure calculation
              = E(kin-el) + E(nuc-el) + E(el-el) + E(nuc-nuc)
    E(ZPE)  - the the zero temperature vibrational energy from the frequency calculation
    E(vib)  - the the finite temperature correction to E(ZPE) due to population
              of excited vibrational states
    E(rot)  - is the rotational thermal energy
    E(trans)- is the translational thermal energy

Summary of contributions to the inner energy U:
Electronic energy                ...  -1219.49236554 Eh
Zero point energy                ...      0.11361846 Eh      71.30 kcal/mol
Thermal vibrational correction   ...      0.01189667 Eh       7.47 kcal/mol
Thermal rotational correction    ...      0.00141627 Eh       0.89 kcal/mol
Thermal translational correction ...      0.00141627 Eh       0.89 kcal/mol
-----------------------------------------------------------------------
Total thermal energy                  -1219.36401787 Eh

Summary of corrections to the electronic energy:
(perhaps to be used in another calculation)
Total thermal correction                  0.01472921 Eh       9.24 kcal/mol
Non-thermal (ZPE) correction              0.11361846 Eh      71.30 kcal/mol
-----------------------------------------------------------------------
Total correction                          0.12834767 Eh      80.54 kcal/mol

--------
ENTHALPY
--------

The enthalpy is H = U + kB*T
                kB is Boltzmann's constant
Total thermal energy              ...  -1219.36401787 Eh
Thermal Enthalpy correction       ...      0.00094421 Eh       0.59 kcal/mol
-----------------------------------------------------------------------
Total Enthalpy                    ...  -1219.36307366 Eh

Note: Only C1 symmetry has been detected, increase convergence thresholds
      if your molecule has a higher symmetry. Symmetry factor of 1.0 is
      used for the rotational entropy correction.

Note: Rotational entropy computed according to Herzberg
Infrared and Raman Spectra, Chapter V,1, Van Nostrand Reinhold, 1945
Point Group:  C1, Symmetry Number:   1
Rotational constants in cm-1:     0.045363     0.022115     0.016303

Vibrational entropy computed according to the QRRHO of S. Grimme
Chem.Eur.J. 2012 18 9955 using a reference frequency of 100.0 cm-1

-------
ENTROPY
-------

The entropy contributions are T*S = T*(S(el)+S(vib)+S(rot)+S(trans))
     S(el)   - electronic entropy
     S(vib)  - vibrational entropy
     S(rot)  - rotational entropy
     S(trans)- translational entropy
The entropies will be listed as multiplied by the temperature to get
units of energy

Electronic entropy                ...      0.00000000 Eh      0.00 kcal/mol
Vibrational entropy               ...      0.02090891 Eh     13.12 kcal/mol
Rotational entropy                ...      0.01471371 Eh      9.23 kcal/mol
Translational entropy             ...      0.01944577 Eh     12.20 kcal/mol
-----------------------------------------------------------------------
Final entropy term                ...      0.05506839 Eh     34.56 kcal/mol

In case the symmetry of your molecule has not been determined correctly
or in case you have a reason to use a different symmetry number we print
out the resulting rotational entropy values for sn=1,12:

 non-linear molecules -----------------------------------
|  sn= 1 | S(rot)=       0.01471371 Eh      9.23 kcal/mol|
|  sn= 2 | S(rot)=       0.01405925 Eh      8.82 kcal/mol|
|  sn= 3 | S(rot)=       0.01367642 Eh      8.58 kcal/mol|
|  sn= 4 | S(rot)=       0.01340480 Eh      8.41 kcal/mol|
|  sn= 5 | S(rot)=       0.01319411 Eh      8.28 kcal/mol|
|  sn= 6 | S(rot)=       0.01302196 Eh      8.17 kcal/mol|

                             ****ORCA TERMINATED NORMALLY****
TOTAL RUN TIME: 0 days 0 hours 41 minutes 46 seconds 726 msec
