                         Program Version 6.1.0  -  RELEASE   -
|  1> # Geometry optimization for (AlH3)n cluster
|  2>
|  3> %pal nprocs 24  end
|  4>
|  5> %geom MaxIter 500 end
|  6>
|  7>
|  8> ! PBE def2-TZVP
|  9> ! RKS	# closed shell for AlH3
| 10> ! D3    #  dispersion correction
| 11> ! Freq 	# Frequency analysis to check the stabiltity of the structures
| 12>
| 13> ! NoPop # population analysis not necessary
| 14>
| 15> ! DEFGRID3
| 16> ! TightSCF
| 17> ! TightOpt
| 18>
| 19> ! SmallPrint
| 20>
| 21>
| 22> * xyzFile 0 1 start.xyz # only maingroup elements H and Al so there should be no net spin
| 23>
| 24>                          ****END OF INPUT****
 Total Charge           Charge          ....    0
 Multiplicity           Mult            ....    1
 Number of Electrons    NEL             ....   32
Dispersion correction           -0.004444951
FINAL SINGLE POINT ENERGY      -488.167026835026
Dispersion correction             ... done (  0.1 sec)
Dispersion correction           -0.004446194
FINAL SINGLE POINT ENERGY      -488.167034634243
Dispersion correction             ... done (  0.1 sec)
Dispersion correction           -0.004449406
FINAL SINGLE POINT ENERGY      -488.167043643134
Dispersion correction             ... done (  0.1 sec)
Dispersion correction           -0.004449590
FINAL SINGLE POINT ENERGY      -488.167044361718
Dispersion correction             ... done (  0.1 sec)
Dispersion correction           -0.004449963
FINAL SINGLE POINT ENERGY      -488.167046470916
Dispersion correction             ... done (  0.1 sec)
                    ***********************HURRAY********************

CARTESIAN COORDINATES (ANGSTROEM)
---------------------------------
  Al     0.000064   -0.002698    2.341285
  Al    -0.000326   -0.002155   -0.272083
  H      1.163599   -0.050069    1.034418
  H     -0.064257   -1.432370   -0.956215
  H     -1.163479    0.053786    1.034787
  H      0.063751    1.421088    3.038615
  H     -0.063706   -1.433198    3.024837
  H      0.063113    1.421926   -0.968834

 Multiplicity           Mult            ....    1
 Number of Electrons    NEL             ....   32
 Basis Dimension        Dim             ....  110

ORBITAL ENERGIES
----------------

  NO   OCC          E(Eh)            E(eV)
   0   2.0000     -55.376039     -1506.8586
   1   2.0000     -55.376027     -1506.8583
   2   2.0000      -3.937173      -107.1359
   3   2.0000      -3.937120      -107.1345
   4   2.0000      -2.543023       -69.1992
   5   2.0000      -2.542952       -69.1972
   6   2.0000      -2.539587       -69.1057
   7   2.0000      -2.538926       -69.0877
   8   2.0000      -2.534590       -68.9697
   9   2.0000      -2.534535       -68.9682
  10   2.0000      -0.466253       -12.6874
  11   2.0000      -0.350725        -9.5437
  12   2.0000      -0.317657        -8.6439
  13   2.0000      -0.293665        -7.9910
  14   2.0000      -0.283906        -7.7255
  15   2.0000      -0.269813        -7.3420
  16   0.0000      -0.070020        -1.9053
  17   0.0000      -0.022425        -0.6102
  18   0.0000      -0.017379        -0.4729
  19   0.0000      -0.016074        -0.4374
  20   0.0000      -0.002056        -0.0559

-------
TIMINGS
-------

Dispersion correction           -0.004449808
FINAL SINGLE POINT ENERGY      -488.167046546594

DIPOLE MOMENT
-------------

Method             : SCF
Type of density    : Electron Density
Multiplicity       :   1
Irrep              :   0
Energy             :  -488.1625967387895457 Eh
Basis              : AO
                                X                 Y                 Z
Electronic contribution:      0.000336976       0.007465879       0.000001937
Nuclear contribution   :     -0.000169400      -0.003738530      -0.000001063
                        -----------------------------------------
Total Dipole Moment    :      0.000167577       0.003727349       0.000000874
                        -----------------------------------------
Magnitude (a.u.)       :      0.003731114
Magnitude (Debye)      :      0.009483739

VIBRATIONAL FREQUENCIES
-----------------------

Scaling factor for frequencies =  1.000000000  (already applied!)

     0:       0.00 cm**-1
     1:       0.00 cm**-1
     2:       0.00 cm**-1
     3:       0.00 cm**-1
     4:       0.00 cm**-1
     5:       0.00 cm**-1
     6:     192.82 cm**-1
     7:     364.91 cm**-1
     8:     405.76 cm**-1
     9:     452.46 cm**-1
    10:     466.22 cm**-1
    11:     601.84 cm**-1
    12:     679.19 cm**-1
    13:     711.66 cm**-1
    14:     717.89 cm**-1
    15:     784.61 cm**-1
    16:    1271.01 cm**-1
    17:    1368.03 cm**-1
    18:    1425.56 cm**-1
    19:    1480.03 cm**-1
    20:    1896.65 cm**-1
    21:    1901.26 cm**-1
    22:    1914.42 cm**-1
    23:    1922.06 cm**-1

IR SPECTRUM
-----------

 Mode   freq       eps      Int      T**2         TX        TY        TZ
       cm**-1   L/(mol*cm) km/mol    a.u.
----------------------------------------------------------------------------
  6:    192.82   0.002172   10.98  0.003515  (-0.002622 -0.059230 -0.000012)
  7:    364.91   0.000000    0.00  0.000000  (-0.000020 -0.000433 -0.000000)
  8:    405.76   0.000000    0.00  0.000000  ( 0.000000  0.000000  0.000027)
  9:    452.46   0.000000    0.00  0.000000  ( 0.000002  0.000000 -0.000466)
 10:    466.22   0.000000    0.00  0.000000  (-0.000000  0.000002 -0.000004)
 11:    601.84   0.043712  220.90  0.022665  ( 0.150400 -0.006705 -0.000023)
 12:    679.19   0.107303  542.27  0.049302  ( 0.000033 -0.000047  0.222041)
 13:    711.66   0.000008    0.04  0.000004  ( 0.001904 -0.000089  0.000022)
 14:    717.89   0.000003    0.02  0.000001  (-0.000053 -0.001173 -0.000001)
 15:    784.61   0.031483  159.10  0.012522  (-0.004976 -0.111789 -0.000023)
 16:   1271.01   0.050986  257.66  0.012518  ( 0.111774 -0.004985 -0.000017)
 17:   1368.03   0.000000    0.00  0.000000  (-0.000000  0.000001 -0.000007)
 18:   1425.56   0.180073  910.01  0.039419  (-0.000030  0.000041 -0.198542)
 19:   1480.03   0.000000    0.00  0.000000  ( 0.000012  0.000268 -0.000001)
 20:   1896.65   0.024794  125.30  0.004079  ( 0.000009 -0.000015  0.063870)
 21:   1901.26   0.000002    0.01  0.000000  ( 0.000023  0.000519 -0.000002)
 22:   1914.42   0.000005    0.02  0.000001  (-0.000001  0.000002 -0.000861)
 23:   1922.06   0.069008  348.74  0.011204  ( 0.004720  0.105744  0.000023)

--------------------------
THERMOCHEMISTRY AT 298.15K
--------------------------

Temperature         ...   298.15 K
Pressure            ...     1.00 atm
Total Mass          ...    60.01 AMU
Quasi RRHO          ...     True
Cut-Off Frequency   ...     1.00 cm^-1

Throughout the following assumptions are being made:
  (1) The electronic state is orbitally nondegenerate
  (2) There are no thermally accessible electronically excited states
  (3) Hindered rotations indicated by low frequency modes are not
      treated as such but are treated as vibrations and this may
      cause some error
  (4) All equations used are the standard statistical mechanics
      equations for an ideal gas
  (5) All vibrations are strictly harmonic

freq.     192.82  E(vib)   ...       0.36
freq.     364.91  E(vib)   ...       0.22
freq.     405.76  E(vib)   ...       0.19
freq.     452.46  E(vib)   ...       0.16
freq.     466.22  E(vib)   ...       0.16
freq.     601.84  E(vib)   ...       0.10
freq.     679.19  E(vib)   ...       0.08
freq.     711.66  E(vib)   ...       0.07
freq.     717.89  E(vib)   ...       0.07
freq.     784.61  E(vib)   ...       0.05
freq.    1271.01  E(vib)   ...       0.01
freq.    1368.03  E(vib)   ...       0.01
freq.    1425.56  E(vib)   ...       0.00
freq.    1480.03  E(vib)   ...       0.00
freq.    1896.65  E(vib)   ...       0.00
freq.    1901.26  E(vib)   ...       0.00
freq.    1914.42  E(vib)   ...       0.00
freq.    1922.06  E(vib)   ...       0.00

------------
INNER ENERGY
------------

The inner energy is: U= E(el) + E(ZPE) + E(vib) + E(rot) + E(trans)
    E(el)   - is the total energy from the electronic structure calculation
              = E(kin-el) + E(nuc-el) + E(el-el) + E(nuc-nuc)
    E(ZPE)  - the the zero temperature vibrational energy from the frequency calculation
    E(vib)  - the the finite temperature correction to E(ZPE) due to population
              of excited vibrational states
    E(rot)  - is the rotational thermal energy
    E(trans)- is the translational thermal energy

Summary of contributions to the inner energy U:
Electronic energy                ...   -488.16704655 Eh
Zero point energy                ...      0.04227454 Eh      26.53 kcal/mol
Thermal vibrational correction   ...      0.00234667 Eh       1.47 kcal/mol
Thermal rotational correction    ...      0.00141627 Eh       0.89 kcal/mol
Thermal translational correction ...      0.00141627 Eh       0.89 kcal/mol
-----------------------------------------------------------------------
Total thermal energy                   -488.11959279 Eh

Summary of corrections to the electronic energy:
(perhaps to be used in another calculation)
Total thermal correction                  0.00517922 Eh       3.25 kcal/mol
Non-thermal (ZPE) correction              0.04227454 Eh      26.53 kcal/mol
-----------------------------------------------------------------------
Total correction                          0.04745375 Eh      29.78 kcal/mol

--------
ENTHALPY
--------

The enthalpy is H = U + kB*T
                kB is Boltzmann's constant
Total thermal energy              ...   -488.11959279 Eh
Thermal Enthalpy correction       ...      0.00094421 Eh       0.59 kcal/mol
-----------------------------------------------------------------------
Total Enthalpy                    ...   -488.11864859 Eh

Note: Rotational entropy computed according to Herzberg
Infrared and Raman Spectra, Chapter V,1, Van Nostrand Reinhold, 1945
Point Group:  C2v, Symmetry Number:   2
Rotational constants in cm-1:     1.537638     0.151931     0.144763

Vibrational entropy computed according to the QRRHO of S. Grimme
Chem.Eur.J. 2012 18 9955 using a reference frequency of 100.0 cm-1

-------
ENTROPY
-------

The entropy contributions are T*S = T*(S(el)+S(vib)+S(rot)+S(trans))
     S(el)   - electronic entropy
     S(vib)  - vibrational entropy
     S(rot)  - rotational entropy
     S(trans)- translational entropy
The entropies will be listed as multiplied by the temperature to get
units of energy

Electronic entropy                ...      0.00000000 Eh      0.00 kcal/mol
Vibrational entropy               ...      0.00354154 Eh      2.22 kcal/mol
Rotational entropy                ...      0.01045520 Eh      6.56 kcal/mol
Translational entropy             ...      0.01814806 Eh     11.39 kcal/mol
-----------------------------------------------------------------------
Final entropy term                ...      0.03214480 Eh     20.17 kcal/mol

In case the symmetry of your molecule has not been determined correctly
or in case you have a reason to use a different symmetry number we print
out the resulting rotational entropy values for sn=1,12:

 non-linear molecules -----------------------------------
|  sn= 1 | S(rot)=       0.01110966 Eh      6.97 kcal/mol|
|  sn= 2 | S(rot)=       0.01045520 Eh      6.56 kcal/mol|
|  sn= 3 | S(rot)=       0.01007237 Eh      6.32 kcal/mol|
|  sn= 4 | S(rot)=       0.00980074 Eh      6.15 kcal/mol|
|  sn= 5 | S(rot)=       0.00959006 Eh      6.02 kcal/mol|
|  sn= 6 | S(rot)=       0.00941791 Eh      5.91 kcal/mol|
|  sn= 7 | S(rot)=       0.00927237 Eh      5.82 kcal/mol|
|  sn= 8 | S(rot)=       0.00914629 Eh      5.74 kcal/mol|
|  sn= 9 | S(rot)=       0.00903508 Eh      5.67 kcal/mol|
|  sn=10 | S(rot)=       0.00893560 Eh      5.61 kcal/mol|
|  sn=11 | S(rot)=       0.00884561 Eh      5.55 kcal/mol|
|  sn=12 | S(rot)=       0.00876346 Eh      5.50 kcal/mol|
 linear molecules ---------------------------------------
|  Dinfh | S(rot)=       0.00715058 Eh      4.49 kcal/mol|
|  Cinfv | S(rot)=       0.00780504 Eh      4.90 kcal/mol|
 --------------------------------------------------------

-------------------
GIBBS FREE ENERGY
-------------------

The Gibbs free energy is G = H - T*S

Total enthalpy                    ...   -488.11864859 Eh
Total entropy correction          ...     -0.03214480 Eh    -20.17 kcal/mol
-----------------------------------------------------------------------
Final Gibbs free energy         ...   -488.15079338 Eh

For completeness - the Gibbs free energy minus the electronic energy
G-E(el)                           ...      0.01625316 Eh     10.20 kcal/mol

                             ****ORCA TERMINATED NORMALLY****
TOTAL RUN TIME: 0 days 0 hours 1 minutes 8 seconds 26 msec
