                         Program Version 6.1.0  -  RELEASE   -
|  1> # Geometry optimization for (AlH3)n cluster
|  2>
|  3> %pal nprocs 24  end
|  4>
|  5> %geom MaxIter 500 end
|  6>
|  7> %cpcm
|  8> 	epsilon 1.95778548766667
|  9> end
| 10>
| 11> ! PBE def2-TZVP
| 12> ! RKS	# closed shell for AlH3
| 13> ! D3    #  dispersion correction
| 14> ! Freq 	# Frequency analysis to check the stabiltity of the structures
| 15>
| 16> ! NoPop # population analysis not necessary
| 17>
| 18> ! DEFGRID3
| 19> ! TightSCF
| 20> ! TightOpt
| 21>
| 22> ! SmallPrint
| 23>
| 24>
| 25> * xyzFile 0 1 start.xyz # only maingroup elements H and Al so there should be no net spin
| 26>
| 27>                          ****END OF INPUT****
 Total Charge           Charge          ....    0
 Multiplicity           Mult            ....    1
 Number of Electrons    NEL             ....   64
Dispersion correction           -0.014343696
FINAL SINGLE POINT ENERGY      -976.352931621829
Dispersion correction             ... done (  0.1 sec)
Dispersion correction           -0.014341600
FINAL SINGLE POINT ENERGY      -976.352941545271
Dispersion correction             ... done (  0.1 sec)
Dispersion correction           -0.014326776
FINAL SINGLE POINT ENERGY      -976.352967702626
Dispersion correction             ... done (  0.1 sec)
FINAL SINGLE POINT ENERGY      -976.352970090444
FINAL SINGLE POINT ENERGY      -976.352976447729
FINAL SINGLE POINT ENERGY      -976.352977542147
FINAL SINGLE POINT ENERGY      -976.352979673551
FINAL SINGLE POINT ENERGY      -976.352981331651
FINAL SINGLE POINT ENERGY      -976.352982714591
FINAL SINGLE POINT ENERGY      -976.352983415542
FINAL SINGLE POINT ENERGY      -976.352983974363
FINAL SINGLE POINT ENERGY      -976.352984395314
FINAL SINGLE POINT ENERGY      -976.352984674471
FINAL SINGLE POINT ENERGY      -976.352984869357
FINAL SINGLE POINT ENERGY      -976.352985080847
Dispersion correction             ... done (  0.1 sec)
Dispersion correction           -0.014248728
FINAL SINGLE POINT ENERGY      -976.352985299138
Dispersion correction             ... done (  0.1 sec)
Dispersion correction           -0.014246901
FINAL SINGLE POINT ENERGY      -976.352985463298
Dispersion correction             ... done (  0.1 sec)
                    ***********************HURRAY********************

CARTESIAN COORDINATES (ANGSTROEM)
---------------------------------
  Al     0.666857    1.167869    2.547145
  Al    -0.244146   -0.468475    0.072834
  H      0.473984   -2.006295    0.313341
  H     -1.661039   -0.463666    0.794518
  H      0.877642    0.376029    1.044173
  H     -0.444694    2.290372    2.368170
  H     -0.103350   -0.091019    3.386756
  H      0.092150   -0.074256   -1.427998
  Al     1.133147   -2.764529    1.700649
  H     -0.269938   -2.547930    2.652537
  H      1.200073   -4.310807    1.347804
  H      2.139587    1.338046    3.114937
  Al    -0.434621   -1.605909    4.075208
  H     -1.998137   -1.618215    4.358060
  H      0.737369   -1.975883    5.081689
  H      2.288376   -1.840131    2.284407

 Multiplicity           Mult            ....    1
 Number of Electrons    NEL             ....   64
 Basis Dimension        Dim             ....  220

ORBITAL ENERGIES
----------------

  NO   OCC          E(Eh)            E(eV)
   0   2.0000     -55.379132     -1506.9428
   1   2.0000     -55.379075     -1506.9413
   2   2.0000     -55.377745     -1506.9050
   3   2.0000     -55.377693     -1506.9036
   4   2.0000      -3.939452      -107.1979
   5   2.0000      -3.939325      -107.1945
   6   2.0000      -3.937751      -107.1517
   7   2.0000      -3.937638      -107.1486
   8   2.0000      -2.544496       -69.2393
   9   2.0000      -2.544401       -69.2367
  10   2.0000      -2.542778       -69.1925
  11   2.0000      -2.542657       -69.1892
  12   2.0000      -2.542277       -69.1789
  13   2.0000      -2.542165       -69.1758
  14   2.0000      -2.540759       -69.1376
  15   2.0000      -2.540679       -69.1354
  16   2.0000      -2.536963       -69.0343
  17   2.0000      -2.536782       -69.0293
  18   2.0000      -2.535102       -68.9836
  19   2.0000      -2.534967       -68.9799
  20   2.0000      -0.475837       -12.9482
  21   2.0000      -0.420286       -11.4366
  22   2.0000      -0.415817       -11.3150
  23   2.0000      -0.349208        -9.5024
  24   2.0000      -0.329240        -8.9591
  25   2.0000      -0.302824        -8.2402
  26   2.0000      -0.295333        -8.0364
  27   2.0000      -0.291897        -7.9429
  28   2.0000      -0.283054        -7.7023
  29   2.0000      -0.274920        -7.4810
  30   2.0000      -0.268785        -7.3140
  31   2.0000      -0.266430        -7.2499
  32   0.0000      -0.057807        -1.5730
  33   0.0000      -0.051237        -1.3942
  34   0.0000      -0.049168        -1.3379
  35   0.0000      -0.042614        -1.1596
  36   0.0000      -0.038461        -1.0466

-------
TIMINGS
-------

Dispersion correction           -0.014246562
FINAL SINGLE POINT ENERGY      -976.352985564494

DIPOLE MOMENT
-------------

Method             : SCF
Type of density    : Electron Density
Multiplicity       :   1
Irrep              :   0
Energy             :  -976.3387390027941137 Eh
Basis              : AO
                                X                 Y                 Z
Electronic contribution:      0.043509604      -0.256086723      -0.381343427
Nuclear contribution   :     -0.027691455       0.078116846       0.114394393
                        -----------------------------------------
Total Dipole Moment    :      0.015818149      -0.177969877      -0.266949035
                        -----------------------------------------
Magnitude (a.u.)       :      0.321224654
Magnitude (Debye)      :      0.816488182

VIBRATIONAL FREQUENCIES
-----------------------

Scaling factor for frequencies =  1.000000000  (already applied!)

     0:       0.00 cm**-1
     1:       0.00 cm**-1
     2:       0.00 cm**-1
     3:       0.00 cm**-1
     4:       0.00 cm**-1
     5:       0.00 cm**-1
     6:      10.56 cm**-1
     7:      37.07 cm**-1
     8:      90.65 cm**-1
     9:     100.56 cm**-1
    10:     135.49 cm**-1
    11:     143.14 cm**-1
    12:     238.92 cm**-1
    13:     258.96 cm**-1
    14:     295.55 cm**-1
    15:     347.48 cm**-1
    16:     366.09 cm**-1
    17:     374.70 cm**-1
    18:     395.25 cm**-1
    19:     414.66 cm**-1
    20:     444.95 cm**-1
    21:     471.32 cm**-1
    22:     504.79 cm**-1
    23:     572.25 cm**-1
    24:     643.72 cm**-1
    25:     645.02 cm**-1
    26:     655.75 cm**-1
    27:     679.20 cm**-1
    28:     697.69 cm**-1
    29:     700.47 cm**-1
    30:     711.63 cm**-1
    31:     715.72 cm**-1
    32:     731.22 cm**-1
    33:     997.93 cm**-1
    34:    1036.21 cm**-1
    35:    1064.73 cm**-1
    36:    1737.32 cm**-1
    37:    1783.34 cm**-1
    38:    1801.65 cm**-1
    39:    1871.99 cm**-1
    40:    1888.04 cm**-1
    41:    1891.95 cm**-1
    42:    1892.91 cm**-1
    43:    1900.69 cm**-1
    44:    1903.40 cm**-1
    45:    1904.39 cm**-1
    46:    1906.34 cm**-1
    47:    1982.38 cm**-1

IR SPECTRUM
-----------

 Mode   freq       eps      Int      T**2         TX        TY        TZ
       cm**-1   L/(mol*cm) km/mol    a.u.
----------------------------------------------------------------------------
  6:     10.56   0.000145    0.73  0.004283  (-0.045786 -0.042584  0.019319)
  7:     37.07   0.000201    1.02  0.001693  ( 0.014232 -0.025959 -0.028571)
  8:     90.65   0.000120    0.61  0.000415  ( 0.002975 -0.019245 -0.005960)
  9:    100.56   0.000100    0.51  0.000311  (-0.011976  0.012893  0.001240)
 10:    135.49   0.000448    2.26  0.001031  (-0.001484  0.017280  0.027030)
 11:    143.14   0.000321    1.62  0.000700  (-0.016990 -0.016241  0.012142)
 12:    238.92   0.000577    2.92  0.000754  (-0.008886  0.008402 -0.024587)
 13:    258.96   0.000399    2.02  0.000481  (-0.004942  0.016323  0.013785)
 14:    295.55   0.002014   10.18  0.002127  ( 0.028012 -0.025669 -0.026137)
 15:    347.48   0.001075    5.43  0.000965  ( 0.015230  0.012786 -0.023872)
 16:    366.09   0.005311   26.84  0.004527  (-0.001479 -0.044783 -0.050194)
 17:    374.70   0.003851   19.46  0.003208  ( 0.040423  0.033860 -0.020666)
 18:    395.25   0.000379    1.92  0.000300  ( 0.002712  0.000747 -0.017078)
 19:    414.66   0.000159    0.80  0.000119  ( 0.003584  0.008499  0.005859)
 20:    444.95   0.000887    4.48  0.000622  (-0.009362  0.013811  0.018542)
 21:    471.32   0.001507    7.62  0.000998  ( 0.003755  0.028590 -0.012908)
 22:    504.79   0.013517   68.31  0.008356  ( 0.015852  0.077786 -0.045321)
 23:    572.25   0.092238  466.13  0.050300  (-0.024797  0.111171  0.193199)
 24:    643.72   0.240121  1213.47  0.116406  ( 0.024851  0.332561 -0.072050)
 25:    645.02   0.170727  862.78  0.082599  ( 0.041300  0.005844 -0.284357)
 26:    655.75   0.123742  625.34  0.058888  (-0.215764  0.067135 -0.088467)
 27:    679.20   0.002932   14.82  0.001347  (-0.034450 -0.000334  0.012659)
 28:    697.69   0.013773   69.60  0.006161  ( 0.006776  0.046758  0.062677)
 29:    700.47   0.022694  114.68  0.010110  (-0.045146 -0.067252  0.059575)
 30:    711.63   0.021090  106.58  0.009248  (-0.096101 -0.002460  0.002593)
 31:    715.72   0.018283   92.39  0.007972  ( 0.057098 -0.068269 -0.007138)
 32:    731.22   0.012886   65.12  0.005499  ( 0.008204 -0.043744 -0.059316)
 33:    997.93   0.046427  234.62  0.014518  ( 0.018643 -0.061973 -0.101637)
 34:   1036.21   0.023713  119.84  0.007141  ( 0.080301  0.018144 -0.019080)
 35:   1064.73   0.024984  126.26  0.007323  ( 0.069728  0.043097  0.024559)
 36:   1737.32   0.061663  311.62  0.011076  (-0.020590 -0.060347  0.083729)
 37:   1783.34   0.261252  1320.26  0.045716  ( 0.054576 -0.145050 -0.147302)
 38:   1801.65   0.170809  863.20  0.029586  (-0.104227  0.053123 -0.126097)
 39:   1871.99   0.104305  527.12  0.017388  (-0.024388 -0.111572  0.065915)
 40:   1888.04   0.018397   92.97  0.003041  ( 0.013160 -0.042755 -0.032243)
 41:   1891.95   0.021229  107.28  0.003501  ( 0.018526  0.039942 -0.039534)
 42:   1892.91   0.002720   13.74  0.000448  ( 0.016337  0.001285  0.013409)
 43:   1900.69   0.014385   72.70  0.002362  ( 0.036123  0.003112  0.032361)
 44:   1903.40   0.034553  174.61  0.005665  ( 0.036087 -0.040621 -0.052082)
 45:   1904.39   0.035127  177.52  0.005756  (-0.062855  0.030379 -0.029707)
 46:   1906.34   0.067743  342.35  0.011089  ( 0.101675  0.026285  0.007788)
 47:   1982.38   0.176677  892.86  0.027812  (-0.054915 -0.138160  0.075555)

--------------------------
THERMOCHEMISTRY AT 298.15K
--------------------------

Temperature         ...   298.15 K
Pressure            ...     1.00 atm
Total Mass          ...   120.02 AMU
Quasi RRHO          ...     True
Cut-Off Frequency   ...     1.00 cm^-1

Throughout the following assumptions are being made:
  (1) The electronic state is orbitally nondegenerate
  (2) There are no thermally accessible electronically excited states
  (3) Hindered rotations indicated by low frequency modes are not
      treated as such but are treated as vibrations and this may
      cause some error
  (4) All equations used are the standard statistical mechanics
      equations for an ideal gas
  (5) All vibrations are strictly harmonic

freq.      10.56  E(vib)   ...       0.58
freq.      37.07  E(vib)   ...       0.54
freq.      90.65  E(vib)   ...       0.47
freq.     100.56  E(vib)   ...       0.46
freq.     135.49  E(vib)   ...       0.42
freq.     143.14  E(vib)   ...       0.41
freq.     238.92  E(vib)   ...       0.32
freq.     258.96  E(vib)   ...       0.30
freq.     295.55  E(vib)   ...       0.27
freq.     347.48  E(vib)   ...       0.23
freq.     366.09  E(vib)   ...       0.22
freq.     374.70  E(vib)   ...       0.21
freq.     395.25  E(vib)   ...       0.20
freq.     414.66  E(vib)   ...       0.19
freq.     444.95  E(vib)   ...       0.17
freq.     471.32  E(vib)   ...       0.15
freq.     504.79  E(vib)   ...       0.14
freq.     572.25  E(vib)   ...       0.11
freq.     643.72  E(vib)   ...       0.09
freq.     645.02  E(vib)   ...       0.09
freq.     655.75  E(vib)   ...       0.08
freq.     679.20  E(vib)   ...       0.08
freq.     697.69  E(vib)   ...       0.07
freq.     700.47  E(vib)   ...       0.07
freq.     711.63  E(vib)   ...       0.07
freq.     715.72  E(vib)   ...       0.07
freq.     731.22  E(vib)   ...       0.06
freq.     997.93  E(vib)   ...       0.02
freq.    1036.21  E(vib)   ...       0.02
freq.    1064.73  E(vib)   ...       0.02
freq.    1737.32  E(vib)   ...       0.00
freq.    1783.34  E(vib)   ...       0.00
freq.    1801.65  E(vib)   ...       0.00
freq.    1871.99  E(vib)   ...       0.00
freq.    1888.04  E(vib)   ...       0.00
freq.    1891.95  E(vib)   ...       0.00
freq.    1892.91  E(vib)   ...       0.00
freq.    1900.69  E(vib)   ...       0.00
freq.    1903.40  E(vib)   ...       0.00
freq.    1904.39  E(vib)   ...       0.00
freq.    1906.34  E(vib)   ...       0.00
freq.    1982.38  E(vib)   ...       0.00

------------
INNER ENERGY
------------

The inner energy is: U= E(el) + E(ZPE) + E(vib) + E(rot) + E(trans)
    E(el)   - is the total energy from the electronic structure calculation
              = E(kin-el) + E(nuc-el) + E(el-el) + E(nuc-nuc)
    E(ZPE)  - the the zero temperature vibrational energy from the frequency calculation
    E(vib)  - the the finite temperature correction to E(ZPE) due to population
              of excited vibrational states
    E(rot)  - is the rotational thermal energy
    E(trans)- is the translational thermal energy

Summary of contributions to the inner energy U:
Electronic energy                ...   -976.35298556 Eh
Zero point energy                ...      0.08416935 Eh      52.82 kcal/mol
Thermal vibrational correction   ...      0.00973757 Eh       6.11 kcal/mol
Thermal rotational correction    ...      0.00141627 Eh       0.89 kcal/mol
Thermal translational correction ...      0.00141627 Eh       0.89 kcal/mol
-----------------------------------------------------------------------
Total thermal energy                   -976.25624610 Eh

Summary of corrections to the electronic energy:
(perhaps to be used in another calculation)
Total thermal correction                  0.01257011 Eh       7.89 kcal/mol
Non-thermal (ZPE) correction              0.08416935 Eh      52.82 kcal/mol
-----------------------------------------------------------------------
Total correction                          0.09673946 Eh      60.70 kcal/mol

--------
ENTHALPY
--------

The enthalpy is H = U + kB*T
                kB is Boltzmann's constant
Total thermal energy              ...   -976.25624610 Eh
Thermal Enthalpy correction       ...      0.00094421 Eh       0.59 kcal/mol
-----------------------------------------------------------------------
Total Enthalpy                    ...   -976.25530189 Eh

Note: Only C1 symmetry has been detected, increase convergence thresholds
      if your molecule has a higher symmetry. Symmetry factor of 1.0 is
      used for the rotational entropy correction.

Note: Rotational entropy computed according to Herzberg
Infrared and Raman Spectra, Chapter V,1, Van Nostrand Reinhold, 1945
Point Group:  C1, Symmetry Number:   1
Rotational constants in cm-1:     0.054561     0.049154     0.031856

Vibrational entropy computed according to the QRRHO of S. Grimme
Chem.Eur.J. 2012 18 9955 using a reference frequency of 100.0 cm-1

-------
ENTROPY
-------

The entropy contributions are T*S = T*(S(el)+S(vib)+S(rot)+S(trans))
     S(el)   - electronic entropy
     S(vib)  - vibrational entropy
     S(rot)  - rotational entropy
     S(trans)- translational entropy
The entropies will be listed as multiplied by the temperature to get
units of energy

Electronic entropy                ...      0.00000000 Eh      0.00 kcal/mol
Vibrational entropy               ...      0.01753695 Eh     11.00 kcal/mol
Rotational entropy                ...      0.01393324 Eh      8.74 kcal/mol
Translational entropy             ...      0.01912974 Eh     12.00 kcal/mol
-----------------------------------------------------------------------
Final entropy term                ...      0.05059994 Eh     31.75 kcal/mol

In case the symmetry of your molecule has not been determined correctly
or in case you have a reason to use a different symmetry number we print
out the resulting rotational entropy values for sn=1,12:

 non-linear molecules -----------------------------------
|  sn= 1 | S(rot)=       0.01393324 Eh      8.74 kcal/mol|
|  sn= 2 | S(rot)=       0.01327879 Eh      8.33 kcal/mol|
|  sn= 3 | S(rot)=       0.01289595 Eh      8.09 kcal/mol|
|  sn= 4 | S(rot)=       0.01262433 Eh      7.92 kcal/mol|
|  sn= 5 | S(rot)=       0.01241364 Eh      7.79 kcal/mol|
|  sn= 6 | S(rot)=       0.01224150 Eh      7.68 kcal/mol|
|  sn= 7 | S(rot)=       0.01209595 Eh      7.59 kcal/mol|
|  sn= 8 | S(rot)=       0.01196987 Eh      7.51 kcal/mol|
|  sn= 9 | S(rot)=       0.01185866 Eh      7.44 kcal/mol|
|  sn=10 | S(rot)=       0.01175919 Eh      7.38 kcal/mol|
|  sn=11 | S(rot)=       0.01166920 Eh      7.32 kcal/mol|
|  sn=12 | S(rot)=       0.01158704 Eh      7.27 kcal/mol|
 linear molecules ---------------------------------------
|  Dinfh | S(rot)=       0.00857996 Eh      5.38 kcal/mol|
|  Cinfv | S(rot)=       0.00923442 Eh      5.79 kcal/mol|
 --------------------------------------------------------

                             ****ORCA TERMINATED NORMALLY****
TOTAL RUN TIME: 0 days 0 hours 6 minutes 41 seconds 624 msec
