                         Program Version 6.1.0  -  RELEASE   -
|  1> # input to generate an atomic fitting density for Zr
|  2> # this file is used internally by ORCA
|  3> #
|  4> # atomic ground state (Mult=3): 1s2 2s2 2p6 3s2 3p6 4s2 3d10 4p6 4d2 5s2
|  5> #
|  6> ! ROHF def2-SVP def2/J Conv LeanSCF AODIIS SOSCF NoMulliken NoLoewdin NoMayer NoPrintMOs
|  7>
|  8> %output print[p_atomdensfit] 2 end
|  9>
| 10> %scf
| 11>   guess     HCore
| 12>   maxiter    1000
| 13>   maxdisk  500000
| 14>   diismaxeq     8
| 15>   soscfstart 1e-4
| 16>   lshift  0.300000
| 17>   ignoreconv true
| 18>
| 19>   hftyp        rohf
| 20>   rohf_case    sahf
| 21>   rohf_numop   3
| 22>   rohf_norb[1] 5,1
| 23>   rohf_nel[1]  2,2
| 24>
| 25> end
| 26>
| 27> %basis
| 28>   NewECP 40
| 29>     N_core 28
| 30>     lmax f
| 31>     s 4
| 32>       1       8.2000000000    150.2675911000  2
| 33>       2       4.0897278000     18.9762165000  2
| 34>       3       7.5400000000     21.0937760000  2
| 35>       4       3.7700000000      3.0806943000  2
| 36>     p 4
| 37>       1       7.1100000000     99.6221237000  2
| 38>       2       3.5967980000     14.1687333000  2
| 39>       3       7.5400000000     21.0937760000  2
| 40>       4       3.7700000000      3.0806943000  2
| 41>     d 4
| 42>       1       5.3500000000     35.0451235000  2
| 43>       2       2.4918215000      6.1112595000  2
| 44>       3       7.5400000000     21.0937760000  2
| 45>       4       3.7700000000      3.0806943000  2
| 46>     f 2
| 47>       1       7.5400000000    -21.0937760000  2
| 48>       2       3.7700000000     -3.0806943000  2
| 49>   end
| 50>   NewGTO 40
| 51>     s 2
| 52>      1      11.0000000000     -1.2721918001
| 53>      2       9.5000000000      2.2605685160
| 54>     s 1
| 55>      1       3.6383667759      1.0000000000
| 56>     s 1
| 57>      1       0.7682202670      1.0000000000
| 58>     s 1
| 59>      1       0.3403682404      1.0000000000
| 60>     s 1
| 61>      1       0.0752612981      1.0000000000
| 62>     s 1
| 63>      1       0.0301314047      1.0000000000
| 64>     p 4
| 65>      1       8.6066305543      0.0424669011
| 66>      2       4.4400979958     -0.2226938137
| 67>      3       1.1281026946      0.5167410683
| 68>      4       0.5434607631      0.6022871253
| 69>     p 1
| 70>      1       0.2502240605      1.0000000000
| 71>     p 1
| 72>      1       0.0850000000      1.0000000000
| 73>     p 1
| 74>      1       0.0290000000      1.0000000000
| 75>     d 3
| 76>      1       4.5567957795     -0.0166279255
| 77>      2       1.2904939797      0.3555819112
| 78>      3       0.5164698722      0.7231156937
| 79>     d 1
| 80>      1       0.1934979779      1.0000000000
| 81>     d 1
| 82>      1       0.0673098100      1.0000000000
| 83>   end
| 84>   NewAuxGTO 40
| 85>     S 1
| 86>      1 1310.72 1.0
| 87>     S 1
| 88>      1  655.36 1.0
| 89>     S 1
| 90>      1  327.68 1.0
| 91>     S 1
| 92>      1  163.84 1.0
| 93>     S 1
| 94>      1   81.82 1.0
| 95>     S 1
| 96>      1   40.96 1.0
| 97>     S 1
| 98>      1   20.48 1.0
| 99>     S 1
|100>      1   10.24 1.0
|101>     S 1
|102>      1    5.12 1.0
|103>     S 1
|104>      1    2.56 1.0
|105>     S 1
|106>      1    1.28 1.0
|107>     S 1
|108>      1    0.64 1.0
|109>     S 1
|110>      1    0.32 1.0
|111>     S 1
|112>      1    0.16 1.0
|113>     S 1
|114>      1    0.08 1.0
|115>     S 1
|116>      1    0.04 1.0
|117>     S 1
|118>      1    0.02 1.0
|119>     S 1
|120>      1    0.01 1.0
|121>   end
|122> end
|123>
|124> * xyz 0 3
|125> 40  0.0 0.0 0.0
|126> *
|127>
|128>
|129>                          ****END OF INPUT****

CARTESIAN COORDINATES (ANGSTROEM)
---------------------------------
  Zr     0.000000    0.000000    0.000000

 Total Charge           Charge          ....    0
 Multiplicity           Mult            ....    3
 Number of Electrons    NEL             ....   12
 Basis Dimension        Dim             ....   33

ORBITAL ENERGIES
----------------

  NO   OCC          E(Eh)            E(eV)
   0   2.0000      -2.805880       -76.3519
   1   2.0000      -1.768244       -48.1164
   2   2.0000      -1.768244       -48.1164
   3   2.0000      -1.756761       -47.8039
   4   0.4000      -0.401715       -10.9312
   5   0.4000      -0.460876       -12.5411
   6   0.4000      -0.438150       -11.9227
   7   0.4000      -0.223138        -6.0719
   8   0.4000      -0.223138        -6.0719
   9   2.0000      -0.155329        -4.2267
  10   0.0000      -0.093406        -2.5417
  11   0.0000      -0.082013        -2.2317
  12   0.0000      -0.082013        -2.2317
  13   0.0000       0.090126         2.4525
  14   0.0000       0.124083         3.3765

FINAL SINGLE POINT ENERGY       -46.053062507902

DIPOLE MOMENT
-------------

Method             : SCF
Type of density    : Electron Density
Multiplicity       :   3
Irrep              :   0
Energy             :   -46.0530625079023395 Eh
Basis              : AO
                                X                 Y                 Z
Electronic contribution:      0.000000645       0.000000241       0.000001894
Nuclear contribution   :      0.000000000       0.000000000       0.000000000
                        -----------------------------------------
Total Dipole Moment    :      0.000000645       0.000000241       0.000001894
                        -----------------------------------------
Magnitude (a.u.)       :      0.000002015
Magnitude (Debye)      :      0.000005122

Rotational constants in cm-1:             0.000000             0.000000             0.000000
Rotational constants in MHz :             0.000000             0.000000             0.000000

                             ****ORCA TERMINATED NORMALLY****
TOTAL RUN TIME: 0 days 0 hours 0 minutes 5 seconds 225 msec
