                         Program Version 6.1.0  -  RELEASE   -
|  1> # Geometry optimization for (AlH3)n cluster
|  2>
|  3> %pal nprocs 24  end
|  4>
|  5> %geom MaxIter 500 end
|  6>
|  7>
|  8> ! PBE def2-TZVP
|  9> ! RKS	# closed shell for AlH3
| 10> ! D3    #  dispersion correction
| 11> ! Freq 	# Frequency analysis to check the stabiltity of the structures
| 12>
| 13> ! NoPop # population analysis not necessary
| 14>
| 15> ! DEFGRID3
| 16> ! TightSCF
| 17> ! TightOpt
| 18>
| 19> ! SmallPrint
| 20>
| 21>
| 22> * xyzFile 0 1 start.xyz # only maingroup elements H and Al so there should be no net spin
| 23>
| 24>                          ****END OF INPUT****
 Total Charge           Charge          ....    0
 Multiplicity           Mult            ....    1
 Number of Electrons    NEL             ....   64
Dispersion correction           -0.014040980
FINAL SINGLE POINT ENERGY      -976.347888758473
Dispersion correction             ... done (  0.1 sec)
Dispersion correction           -0.014064757
FINAL SINGLE POINT ENERGY      -976.347926152341
Dispersion correction             ... done (  0.1 sec)
Dispersion correction           -0.014169626
FINAL SINGLE POINT ENERGY      -976.348005114481
Dispersion correction             ... done (  0.1 sec)
FINAL SINGLE POINT ENERGY      -976.348018673812
FINAL SINGLE POINT ENERGY      -976.348079967680
FINAL SINGLE POINT ENERGY      -976.348094092039
FINAL SINGLE POINT ENERGY      -976.348105052818
FINAL SINGLE POINT ENERGY      -976.348112744182
FINAL SINGLE POINT ENERGY      -976.348120020348
FINAL SINGLE POINT ENERGY      -976.348124475349
FINAL SINGLE POINT ENERGY      -976.348128337987
FINAL SINGLE POINT ENERGY      -976.348131422230
FINAL SINGLE POINT ENERGY      -976.348133044497
FINAL SINGLE POINT ENERGY      -976.348133565207
FINAL SINGLE POINT ENERGY      -976.348133868523
FINAL SINGLE POINT ENERGY      -976.348134317838
FINAL SINGLE POINT ENERGY      -976.348134842440
Dispersion correction             ... done (  0.1 sec)
Dispersion correction           -0.014342266
FINAL SINGLE POINT ENERGY      -976.348135241696
Dispersion correction             ... done (  0.1 sec)
Dispersion correction           -0.014342988
FINAL SINGLE POINT ENERGY      -976.348135443051
Dispersion correction             ... done (  0.1 sec)
                    ***********************HURRAY********************

CARTESIAN COORDINATES (ANGSTROEM)
---------------------------------
  Al     0.687672    1.162117    2.542515
  Al    -0.254538   -0.472028    0.091286
  H      0.489523   -2.006643    0.305731
  H     -1.645295   -0.490123    0.860046
  H      0.892582    0.373858    1.032522
  H     -0.415177    2.289809    2.349606
  H     -0.102094   -0.087950    3.383477
  H      0.034742   -0.074499   -1.417086
  Al     1.142238   -2.750560    1.709666
  H     -0.282778   -2.548602    2.632835
  H      1.236672   -4.295565    1.363319
  H      2.159075    1.316001    3.113559
  Al    -0.453025   -1.606926    4.059232
  H     -2.017805   -1.608759    4.325590
  H      0.711691   -1.998377    5.064759
  H      2.269777   -1.796553    2.297173

 Multiplicity           Mult            ....    1
 Number of Electrons    NEL             ....   64
 Basis Dimension        Dim             ....  220

ORBITAL ENERGIES
----------------

  NO   OCC          E(Eh)            E(eV)
   0   2.0000     -55.384775     -1507.0963
   1   2.0000     -55.384634     -1507.0925
   2   2.0000     -55.382565     -1507.0362
   3   2.0000     -55.382421     -1507.0323
   4   2.0000      -3.945422      -107.3604
   5   2.0000      -3.945214      -107.3547
   6   2.0000      -3.942877      -107.2911
   7   2.0000      -3.942652      -107.2850
   8   2.0000      -2.550523       -69.4033
   9   2.0000      -2.550346       -69.3984
  10   2.0000      -2.548276       -69.3421
  11   2.0000      -2.548081       -69.3368
  12   2.0000      -2.547958       -69.3335
  13   2.0000      -2.547727       -69.3272
  14   2.0000      -2.545944       -69.2787
  15   2.0000      -2.545762       -69.2737
  16   2.0000      -2.542805       -69.1932
  17   2.0000      -2.542550       -69.1863
  18   2.0000      -2.540066       -69.1187
  19   2.0000      -2.539809       -69.1117
  20   2.0000      -0.484028       -13.1711
  21   2.0000      -0.427528       -11.6336
  22   2.0000      -0.422837       -11.5060
  23   2.0000      -0.355138        -9.6638
  24   2.0000      -0.337308        -9.1786
  25   2.0000      -0.309441        -8.4203
  26   2.0000      -0.301252        -8.1975
  27   2.0000      -0.297294        -8.0898
  28   2.0000      -0.288276        -7.8444
  29   2.0000      -0.279873        -7.6157
  30   2.0000      -0.273270        -7.4361
  31   2.0000      -0.270546        -7.3619
  32   0.0000      -0.065731        -1.7886
  33   0.0000      -0.058151        -1.5824
  34   0.0000      -0.056479        -1.5369
  35   0.0000      -0.051585        -1.4037
  36   0.0000      -0.046948        -1.2775

-------
TIMINGS
-------

Dispersion correction           -0.014343696
FINAL SINGLE POINT ENERGY      -976.348135585152

DIPOLE MOMENT
-------------

Method             : SCF
Type of density    : Electron Density
Multiplicity       :   1
Irrep              :   0
Energy             :  -976.3337918889592402 Eh
Basis              : AO
                                X                 Y                 Z
Electronic contribution:      0.054778213      -0.203255550      -0.295647191
Nuclear contribution   :     -0.031572839       0.065363323       0.090401658
                        -----------------------------------------
Total Dipole Moment    :      0.023205374      -0.137892227      -0.205245533
                        -----------------------------------------
Magnitude (a.u.)       :      0.248351534
Magnitude (Debye)      :      0.631259431

VIBRATIONAL FREQUENCIES
-----------------------

Scaling factor for frequencies =  1.000000000  (already applied!)

     0:       0.00 cm**-1
     1:       0.00 cm**-1
     2:       0.00 cm**-1
     3:       0.00 cm**-1
     4:       0.00 cm**-1
     5:       0.00 cm**-1
     6:      33.15 cm**-1
     7:      46.19 cm**-1
     8:     101.20 cm**-1
     9:     117.37 cm**-1
    10:     144.31 cm**-1
    11:     149.05 cm**-1
    12:     246.66 cm**-1
    13:     261.34 cm**-1
    14:     295.38 cm**-1
    15:     344.58 cm**-1
    16:     369.90 cm**-1
    17:     380.52 cm**-1
    18:     399.96 cm**-1
    19:     415.80 cm**-1
    20:     449.52 cm**-1
    21:     478.86 cm**-1
    22:     513.21 cm**-1
    23:     588.49 cm**-1
    24:     667.49 cm**-1
    25:     671.24 cm**-1
    26:     680.81 cm**-1
    27:     692.50 cm**-1
    28:     712.08 cm**-1
    29:     718.04 cm**-1
    30:     727.55 cm**-1
    31:     734.42 cm**-1
    32:     748.36 cm**-1
    33:    1018.70 cm**-1
    34:    1052.30 cm**-1
    35:    1081.11 cm**-1
    36:    1724.31 cm**-1
    37:    1781.27 cm**-1
    38:    1798.03 cm**-1
    39:    1880.51 cm**-1
    40:    1893.76 cm**-1
    41:    1896.29 cm**-1
    42:    1897.98 cm**-1
    43:    1912.42 cm**-1
    44:    1913.68 cm**-1
    45:    1914.42 cm**-1
    46:    1918.98 cm**-1
    47:    1980.12 cm**-1

IR SPECTRUM
-----------

 Mode   freq       eps      Int      T**2         TX        TY        TZ
       cm**-1   L/(mol*cm) km/mol    a.u.
----------------------------------------------------------------------------
  6:     33.15   0.000056    0.28  0.000528  (-0.013420 -0.012267  0.014066)
  7:     46.19   0.000088    0.44  0.000595  ( 0.006845 -0.017137 -0.015938)
  8:    101.20   0.000074    0.37  0.000228  (-0.002491 -0.012870 -0.007490)
  9:    117.37   0.000109    0.55  0.000289  ( 0.004115 -0.015640 -0.005209)
 10:    144.31   0.000162    0.82  0.000350  (-0.002751 -0.011695 -0.014349)
 11:    149.05   0.000252    1.27  0.000527  (-0.018921 -0.005342  0.011839)
 12:    246.66   0.000337    1.70  0.000426  ( 0.003283 -0.000955  0.020356)
 13:    261.34   0.000120    0.61  0.000144  (-0.002822  0.011632  0.000602)
 14:    295.38   0.001352    6.83  0.001428  ( 0.019802 -0.021420 -0.024031)
 15:    344.58   0.000658    3.32  0.000596  ( 0.010857  0.014581 -0.016284)
 16:    369.90   0.003141   15.87  0.002650  ( 0.001237 -0.032435 -0.039956)
 17:    380.52   0.002375   12.00  0.001948  ( 0.026686  0.030668 -0.017171)
 18:    399.96   0.000184    0.93  0.000143  ( 0.000346  0.000483 -0.011956)
 19:    415.80   0.000113    0.57  0.000085  ( 0.003093  0.007491  0.004350)
 20:    449.52   0.000534    2.70  0.000371  (-0.007749  0.010012  0.014504)
 21:    478.86   0.000982    4.96  0.000640  ( 0.003715  0.022125 -0.011696)
 22:    513.21   0.006167   31.16  0.003750  ( 0.015410  0.051159 -0.029915)
 23:    588.49   0.043687  220.77  0.023166  (-0.018602  0.075885  0.130619)
 24:    667.49   0.108585  548.74  0.050766  ( 0.005484 -0.164216 -0.154171)
 25:    671.24   0.157898  797.95  0.073407  ( 0.059701  0.198766 -0.174171)
 26:    680.81   0.093221  471.10  0.042730  (-0.164405  0.083902 -0.093067)
 27:    692.50   0.005580   28.20  0.002514  (-0.033280  0.011767  0.035614)
 28:    712.08   0.010644   53.79  0.004664  ( 0.018093  0.058127  0.030957)
 29:    718.04   0.024441  123.52  0.010622  ( 0.001922  0.057082 -0.085792)
 30:    727.55   0.019382   97.95  0.008313  (-0.087806 -0.016158  0.018506)
 31:    734.42   0.020141  101.78  0.008558  ( 0.040106 -0.079324 -0.025637)
 32:    748.36   0.009536   48.19  0.003977  ( 0.006002 -0.034412 -0.052502)
 33:   1018.70   0.033973  171.69  0.010407  ( 0.017078 -0.051703 -0.086269)
 34:   1052.30   0.014522   73.39  0.004307  ( 0.061463  0.013914 -0.018308)
 35:   1081.11   0.017538   88.63  0.005062  ( 0.057512  0.036243  0.021007)
 36:   1724.31   0.043262  218.63  0.007829  (-0.008960 -0.059151  0.065195)
 37:   1781.27   0.177863  898.85  0.031160  ( 0.056266 -0.122034 -0.114463)
 38:   1798.03   0.121535  614.19  0.021093  (-0.079868  0.027334 -0.118183)
 39:   1880.51   0.078069  394.53  0.012955  (-0.018978 -0.096997  0.056450)
 40:   1893.76   0.009402   47.51  0.001549  ( 0.004162 -0.029011 -0.026273)
 41:   1896.29   0.007124   36.00  0.001172  (-0.020444 -0.012842  0.024280)
 42:   1897.98   0.001025    5.18  0.000169  ( 0.012109 -0.004029 -0.002387)
 43:   1912.42   0.016054   81.13  0.002620  (-0.028733  0.030602 -0.029283)
 44:   1913.68   0.010398   52.55  0.001696  ( 0.010025  0.013660 -0.037531)
 45:   1914.42   0.026468  133.76  0.004314  ( 0.013253 -0.047506 -0.043381)
 46:   1918.98   0.060741  306.96  0.009878  ( 0.098201  0.008627  0.012639)
 47:   1980.12   0.134627  680.35  0.021217  (-0.047647 -0.120704  0.066162)

--------------------------
THERMOCHEMISTRY AT 298.15K
--------------------------

Temperature         ...   298.15 K
Pressure            ...     1.00 atm
Total Mass          ...   120.02 AMU
Quasi RRHO          ...     True
Cut-Off Frequency   ...     1.00 cm^-1

Throughout the following assumptions are being made:
  (1) The electronic state is orbitally nondegenerate
  (2) There are no thermally accessible electronically excited states
  (3) Hindered rotations indicated by low frequency modes are not
      treated as such but are treated as vibrations and this may
      cause some error
  (4) All equations used are the standard statistical mechanics
      equations for an ideal gas
  (5) All vibrations are strictly harmonic

freq.      33.15  E(vib)   ...       0.55
freq.      46.19  E(vib)   ...       0.53
freq.     101.20  E(vib)   ...       0.46
freq.     117.37  E(vib)   ...       0.44
freq.     144.31  E(vib)   ...       0.41
freq.     149.05  E(vib)   ...       0.40
freq.     246.66  E(vib)   ...       0.31
freq.     261.34  E(vib)   ...       0.30
freq.     295.38  E(vib)   ...       0.27
freq.     344.58  E(vib)   ...       0.23
freq.     369.90  E(vib)   ...       0.21
freq.     380.52  E(vib)   ...       0.21
freq.     399.96  E(vib)   ...       0.19
freq.     415.80  E(vib)   ...       0.18
freq.     449.52  E(vib)   ...       0.17
freq.     478.86  E(vib)   ...       0.15
freq.     513.21  E(vib)   ...       0.13
freq.     588.49  E(vib)   ...       0.10
freq.     667.49  E(vib)   ...       0.08
freq.     671.24  E(vib)   ...       0.08
freq.     680.81  E(vib)   ...       0.08
freq.     692.50  E(vib)   ...       0.07
freq.     712.08  E(vib)   ...       0.07
freq.     718.04  E(vib)   ...       0.07
freq.     727.55  E(vib)   ...       0.06
freq.     734.42  E(vib)   ...       0.06
freq.     748.36  E(vib)   ...       0.06
freq.    1018.70  E(vib)   ...       0.02
freq.    1052.30  E(vib)   ...       0.02
freq.    1081.11  E(vib)   ...       0.02
freq.    1724.31  E(vib)   ...       0.00
freq.    1781.27  E(vib)   ...       0.00
freq.    1798.03  E(vib)   ...       0.00
freq.    1880.51  E(vib)   ...       0.00
freq.    1893.76  E(vib)   ...       0.00
freq.    1896.29  E(vib)   ...       0.00
freq.    1897.98  E(vib)   ...       0.00
freq.    1912.42  E(vib)   ...       0.00
freq.    1913.68  E(vib)   ...       0.00
freq.    1914.42  E(vib)   ...       0.00
freq.    1918.98  E(vib)   ...       0.00
freq.    1980.12  E(vib)   ...       0.00

------------
INNER ENERGY
------------

The inner energy is: U= E(el) + E(ZPE) + E(vib) + E(rot) + E(trans)
    E(el)   - is the total energy from the electronic structure calculation
              = E(kin-el) + E(nuc-el) + E(el-el) + E(nuc-nuc)
    E(ZPE)  - the the zero temperature vibrational energy from the frequency calculation
    E(vib)  - the the finite temperature correction to E(ZPE) due to population
              of excited vibrational states
    E(rot)  - is the rotational thermal energy
    E(trans)- is the translational thermal energy

Summary of contributions to the inner energy U:
Electronic energy                ...   -976.34813559 Eh
Zero point energy                ...      0.08509382 Eh      53.40 kcal/mol
Thermal vibrational correction   ...      0.00946046 Eh       5.94 kcal/mol
Thermal rotational correction    ...      0.00141627 Eh       0.89 kcal/mol
Thermal translational correction ...      0.00141627 Eh       0.89 kcal/mol
-----------------------------------------------------------------------
Total thermal energy                   -976.25074876 Eh

Summary of corrections to the electronic energy:
(perhaps to be used in another calculation)
Total thermal correction                  0.01229300 Eh       7.71 kcal/mol
Non-thermal (ZPE) correction              0.08509382 Eh      53.40 kcal/mol
-----------------------------------------------------------------------
Total correction                          0.09738682 Eh      61.11 kcal/mol

--------
ENTHALPY
--------

The enthalpy is H = U + kB*T
                kB is Boltzmann's constant
Total thermal energy              ...   -976.25074876 Eh
Thermal Enthalpy correction       ...      0.00094421 Eh       0.59 kcal/mol
-----------------------------------------------------------------------
Total Enthalpy                    ...   -976.24980455 Eh

Note: Only C1 symmetry has been detected, increase convergence thresholds
      if your molecule has a higher symmetry. Symmetry factor of 1.0 is
      used for the rotational entropy correction.

Note: Rotational entropy computed according to Herzberg
Infrared and Raman Spectra, Chapter V,1, Van Nostrand Reinhold, 1945
Point Group:  C1, Symmetry Number:   1
Rotational constants in cm-1:     0.054892     0.049284     0.032283

Vibrational entropy computed according to the QRRHO of S. Grimme
Chem.Eur.J. 2012 18 9955 using a reference frequency of 100.0 cm-1

-------
ENTROPY
-------

The entropy contributions are T*S = T*(S(el)+S(vib)+S(rot)+S(trans))
     S(el)   - electronic entropy
     S(vib)  - vibrational entropy
     S(rot)  - rotational entropy
     S(trans)- translational entropy
The entropies will be listed as multiplied by the temperature to get
units of energy

Electronic entropy                ...      0.00000000 Eh      0.00 kcal/mol
Vibrational entropy               ...      0.01651693 Eh     10.36 kcal/mol
Rotational entropy                ...      0.01392285 Eh      8.74 kcal/mol
Translational entropy             ...      0.01912974 Eh     12.00 kcal/mol
-----------------------------------------------------------------------
Final entropy term                ...      0.04956952 Eh     31.11 kcal/mol

In case the symmetry of your molecule has not been determined correctly
or in case you have a reason to use a different symmetry number we print
out the resulting rotational entropy values for sn=1,12:

 non-linear molecules -----------------------------------
|  sn= 1 | S(rot)=       0.01392285 Eh      8.74 kcal/mol|
|  sn= 2 | S(rot)=       0.01326839 Eh      8.33 kcal/mol|
|  sn= 3 | S(rot)=       0.01288556 Eh      8.09 kcal/mol|
|  sn= 4 | S(rot)=       0.01261393 Eh      7.92 kcal/mol|
|  sn= 5 | S(rot)=       0.01240324 Eh      7.78 kcal/mol|
|  sn= 6 | S(rot)=       0.01223110 Eh      7.68 kcal/mol|
|  sn= 7 | S(rot)=       0.01208555 Eh      7.58 kcal/mol|
|  sn= 8 | S(rot)=       0.01195948 Eh      7.50 kcal/mol|
|  sn= 9 | S(rot)=       0.01184827 Eh      7.43 kcal/mol|
|  sn=10 | S(rot)=       0.01174879 Eh      7.37 kcal/mol|
|  sn=11 | S(rot)=       0.01165880 Eh      7.32 kcal/mol|
|  sn=12 | S(rot)=       0.01157664 Eh      7.26 kcal/mol|
 linear molecules ---------------------------------------
|  Dinfh | S(rot)=       0.00856737 Eh      5.38 kcal/mol|
|  Cinfv | S(rot)=       0.00922183 Eh      5.79 kcal/mol|
 --------------------------------------------------------

                             ****ORCA TERMINATED NORMALLY****
TOTAL RUN TIME: 0 days 0 hours 6 minutes 19 seconds 224 msec
