                         Program Version 6.1.0  -  RELEASE   -
|  1> # Geometry optimization for (AlH3)n cluster
|  2>
|  3> %pal nprocs 24  end
|  4>
|  5> %geom MaxIter 500 end
|  6>
|  7>
|  8> ! PBE def2-SV(P)
|  9> ! RKS	# closed shell for AlH3
| 10> ! D3    #  dispersion correction
| 11> ! Freq 	# Frequency analysis to check the stabiltity of the structures
| 12>
| 13> ! NoPop # population analysis not necessary
| 14>
| 15> ! RI
| 16> ! DEFGRID2
| 17> ! NormalSCF
| 18> ! SloppyOpt
| 19>
| 20> ! SmallPrint
| 21>
| 22>
| 23> * xyzFile 0 1 start.xyz # only maingroup elements H and Al so there should be no net spin
| 24>
| 25>                          ****END OF INPUT****
 Total Charge           Charge          ....    0
 Multiplicity           Mult            ....    1
 Number of Electrons    NEL             ....   16
Dispersion correction           -0.001101509
FINAL SINGLE POINT ENERGY      -243.933959279425
Dispersion correction             ... done (  0.1 sec)
Dispersion correction           -0.001090565
FINAL SINGLE POINT ENERGY      -243.947592648142
Dispersion correction             ... done (  0.1 sec)
Dispersion correction           -0.001082392
FINAL SINGLE POINT ENERGY      -243.956176020646
Dispersion correction             ... done (  0.1 sec)
Dispersion correction           -0.001078004
FINAL SINGLE POINT ENERGY      -243.960101835455
Dispersion correction             ... done (  0.1 sec)
Dispersion correction           -0.001077568
FINAL SINGLE POINT ENERGY      -243.960492095519
Dispersion correction             ... done (  0.1 sec)
                    ***********************HURRAY********************

CARTESIAN COORDINATES (ANGSTROEM)
---------------------------------
  Al    -1.368310    0.623119   -0.215200
  H     -0.535613    0.414027    1.145788
  H     -1.290904    2.036051   -0.979269
  H     -2.265623   -0.583547   -0.785249

 Multiplicity           Mult            ....    1
 Number of Electrons    NEL             ....   16
 Basis Dimension        Dim             ....   24

ORBITAL ENERGIES
----------------

  NO   OCC          E(Eh)            E(eV)
   0   2.0000     -55.379779     -1506.9604
   1   2.0000      -3.939587      -107.2016
   2   2.0000      -2.552962       -69.4696
   3   2.0000      -2.540996       -69.1440
   4   2.0000      -2.540857       -69.1402
   5   2.0000      -0.375184       -10.2093
   6   2.0000      -0.268540        -7.3073
   7   2.0000      -0.266723        -7.2579
   8   0.0000      -0.092825        -2.5259
   9   0.0000       0.018591         0.5059
  10   0.0000       0.039999         1.0884
  11   0.0000       0.043213         1.1759
  12   0.0000       0.075705         2.0600

-------
TIMINGS
-------

Dispersion correction           -0.001077768
FINAL SINGLE POINT ENERGY      -243.960512173859

DIPOLE MOMENT
-------------

Method             : SCF
Type of density    : Electron Density
Multiplicity       :   1
Irrep              :   0
Energy             :  -243.9594344056823161 Eh
Basis              : AO
                                X                 Y                 Z
Electronic contribution:     -0.020054660       0.004478419      -0.041482360
Nuclear contribution   :      0.011179785      -0.002470436       0.023486400
                        -----------------------------------------
Total Dipole Moment    :     -0.008874875       0.002007984      -0.017995960
                        -----------------------------------------
Magnitude (a.u.)       :      0.020165564
Magnitude (Debye)      :      0.051256791

VIBRATIONAL FREQUENCIES
-----------------------

Scaling factor for frequencies =  1.000000000  (already applied!)

     0:       0.00 cm**-1
     1:       0.00 cm**-1
     2:       0.00 cm**-1
     3:       0.00 cm**-1
     4:       0.00 cm**-1
     5:       0.00 cm**-1
     6:     683.20 cm**-1
     7:     759.14 cm**-1
     8:     766.46 cm**-1
     9:    1872.08 cm**-1
    10:    1889.20 cm**-1
    11:    1893.96 cm**-1

IR SPECTRUM
-----------

 Mode   freq       eps      Int      T**2         TX        TY        TZ
       cm**-1   L/(mol*cm) km/mol    a.u.
----------------------------------------------------------------------------
  6:    683.20   0.061616  311.38  0.028144  (-0.131132  0.055308  0.088824)
  7:    759.14   0.040579  205.07  0.016681  (-0.066961  0.016880 -0.109143)
  8:    766.46   0.039754  200.90  0.016186  (-0.044304 -0.118939  0.008742)
  9:   1872.08   0.000220    1.11  0.000037  (-0.003081  0.000948 -0.005122)
 10:   1889.20   0.048167  243.41  0.007956  ( 0.046480 -0.010955  0.075339)
 11:   1893.96   0.047730  241.21  0.007864  (-0.030533 -0.082986  0.006749)

--------------------------
THERMOCHEMISTRY AT 298.15K
--------------------------

Temperature         ...   298.15 K
Pressure            ...     1.00 atm
Total Mass          ...    30.01 AMU
Quasi RRHO          ...     True
Cut-Off Frequency   ...     1.00 cm^-1

Throughout the following assumptions are being made:
  (1) The electronic state is orbitally nondegenerate
  (2) There are no thermally accessible electronically excited states
  (3) Hindered rotations indicated by low frequency modes are not
      treated as such but are treated as vibrations and this may
      cause some error
  (4) All equations used are the standard statistical mechanics
      equations for an ideal gas
  (5) All vibrations are strictly harmonic

freq.     683.20  E(vib)   ...       0.08
freq.     759.14  E(vib)   ...       0.06
freq.     766.46  E(vib)   ...       0.06
freq.    1872.08  E(vib)   ...       0.00
freq.    1889.20  E(vib)   ...       0.00
freq.    1893.96  E(vib)   ...       0.00

------------
INNER ENERGY
------------

The inner energy is: U= E(el) + E(ZPE) + E(vib) + E(rot) + E(trans)
    E(el)   - is the total energy from the electronic structure calculation
              = E(kin-el) + E(nuc-el) + E(el-el) + E(nuc-nuc)
    E(ZPE)  - the the zero temperature vibrational energy from the frequency calculation
    E(vib)  - the the finite temperature correction to E(ZPE) due to population
              of excited vibrational states
    E(rot)  - is the rotational thermal energy
    E(trans)- is the translational thermal energy

Summary of contributions to the inner energy U:
Electronic energy                ...   -243.96051217 Eh
Zero point energy                ...      0.01791557 Eh      11.24 kcal/mol
Thermal vibrational correction   ...      0.00030220 Eh       0.19 kcal/mol
Thermal rotational correction    ...      0.00141627 Eh       0.89 kcal/mol
Thermal translational correction ...      0.00141627 Eh       0.89 kcal/mol
-----------------------------------------------------------------------
Total thermal energy                   -243.93946186 Eh

Summary of corrections to the electronic energy:
(perhaps to be used in another calculation)
Total thermal correction                  0.00313474 Eh       1.97 kcal/mol
Non-thermal (ZPE) correction              0.01791557 Eh      11.24 kcal/mol
-----------------------------------------------------------------------
Total correction                          0.02105032 Eh      13.21 kcal/mol

--------
ENTHALPY
--------

The enthalpy is H = U + kB*T
                kB is Boltzmann's constant
Total thermal energy              ...   -243.93946186 Eh
Thermal Enthalpy correction       ...      0.00094421 Eh       0.59 kcal/mol
-----------------------------------------------------------------------
Total Enthalpy                    ...   -243.93851765 Eh

Note: Rotational entropy computed according to Herzberg
Infrared and Raman Spectra, Chapter V,1, Van Nostrand Reinhold, 1945
Point Group:  Cs, Symmetry Number:   1
Rotational constants in cm-1:     4.358924     4.260841     2.154664

Vibrational entropy computed according to the QRRHO of S. Grimme
Chem.Eur.J. 2012 18 9955 using a reference frequency of 100.0 cm-1

-------
ENTROPY
-------

The entropy contributions are T*S = T*(S(el)+S(vib)+S(rot)+S(trans))
     S(el)   - electronic entropy
     S(vib)  - vibrational entropy
     S(rot)  - rotational entropy
     S(trans)- translational entropy
The entropies will be listed as multiplied by the temperature to get
units of energy

Electronic entropy                ...      0.00000000 Eh      0.00 kcal/mol
Vibrational entropy               ...      0.00038661 Eh      0.24 kcal/mol
Rotational entropy                ...      0.00776911 Eh      4.88 kcal/mol
Translational entropy             ...      0.01716637 Eh     10.77 kcal/mol
-----------------------------------------------------------------------
Final entropy term                ...      0.02532210 Eh     15.89 kcal/mol

In case the symmetry of your molecule has not been determined correctly
or in case you have a reason to use a different symmetry number we print
out the resulting rotational entropy values for sn=1,12:

 non-linear molecules -----------------------------------
|  sn= 1 | S(rot)=       0.00776911 Eh      4.88 kcal/mol|
|  sn= 2 | S(rot)=       0.00711466 Eh      4.46 kcal/mol|
|  sn= 3 | S(rot)=       0.00673183 Eh      4.22 kcal/mol|
|  sn= 4 | S(rot)=       0.00646020 Eh      4.05 kcal/mol|
|  sn= 5 | S(rot)=       0.00624951 Eh      3.92 kcal/mol|
|  sn= 6 | S(rot)=       0.00607737 Eh      3.81 kcal/mol|
|  sn= 7 | S(rot)=       0.00593182 Eh      3.72 kcal/mol|
|  sn= 8 | S(rot)=       0.00580575 Eh      3.64 kcal/mol|
|  sn= 9 | S(rot)=       0.00569454 Eh      3.57 kcal/mol|
|  sn=10 | S(rot)=       0.00559506 Eh      3.51 kcal/mol|
|  sn=11 | S(rot)=       0.00550507 Eh      3.45 kcal/mol|
|  sn=12 | S(rot)=       0.00542291 Eh      3.40 kcal/mol|
 linear molecules ---------------------------------------
|  Dinfh | S(rot)=       0.00460102 Eh      2.89 kcal/mol|
|  Cinfv | S(rot)=       0.00525548 Eh      3.30 kcal/mol|
 --------------------------------------------------------

-------------------
GIBBS FREE ENERGY
-------------------

The Gibbs free energy is G = H - T*S

Total enthalpy                    ...   -243.93851765 Eh
Total entropy correction          ...     -0.02532210 Eh    -15.89 kcal/mol
-----------------------------------------------------------------------
Final Gibbs free energy         ...   -243.96383975 Eh

For completeness - the Gibbs free energy minus the electronic energy
G-E(el)                           ...     -0.00332757 Eh     -2.09 kcal/mol

                             ****ORCA TERMINATED NORMALLY****
TOTAL RUN TIME: 0 days 0 hours 0 minutes 40 seconds 285 msec
