                         Program Version 6.1.0  -  RELEASE   -
|  1> # Geometry optimization for (AlH3)n cluster
|  2>
|  3> %pal nprocs 24  end
|  4>
|  5> %geom MaxIter 500 end
|  6>
|  7> %elprop Polar 1 end # invoke raman
|  8>
|  9> ! PBEh-3c
| 10> ! RKS	# closed shell for AlH3
| 11> ! Freq 	# Frequency analysis to check the stabiltity of the structures
| 12>
| 13>
| 14> ! NoPop # population analysis not necessary
| 15>
| 16> ! DEFGRID3
| 17> ! ExtremeSCF
| 18> ! VeryTightOpt
| 19>
| 20>
| 21> ! SmallPrint
| 22>
| 23>
| 24> * xyzFile 0 1 start.xyz # only maingroup elements H and Al so there should be no net spin
| 25>
| 26>                          ****END OF INPUT****
 Total Charge           Charge          ....    0
 Multiplicity           Mult            ....    1
 Number of Electrons    NEL             ....   32
Dispersion correction           -0.002141216
FINAL SINGLE POINT ENERGY      -487.785111121026
Dispersion correction             ... done (  0.1 sec)
Dispersion correction           -0.002145260
FINAL SINGLE POINT ENERGY      -487.785357860648
Dispersion correction             ... done (  0.1 sec)
Dispersion correction           -0.002154165
FINAL SINGLE POINT ENERGY      -487.785571667276
Dispersion correction             ... done (  0.1 sec)
FINAL SINGLE POINT ENERGY      -487.785576124296
FINAL SINGLE POINT ENERGY      -487.785581265577
FINAL SINGLE POINT ENERGY      -487.785581376411
FINAL SINGLE POINT ENERGY      -487.785581739700
FINAL SINGLE POINT ENERGY      -487.785581756783
Dispersion correction             ... done (  0.1 sec)
Dispersion correction           -0.002155531
FINAL SINGLE POINT ENERGY      -487.785581924313
Dispersion correction             ... done (  0.1 sec)
Dispersion correction           -0.002155489
FINAL SINGLE POINT ENERGY      -487.785581951864
Dispersion correction             ... done (  0.1 sec)
                    ***********************HURRAY********************

CARTESIAN COORDINATES (ANGSTROEM)
---------------------------------
  Al     0.000038   -0.003236    2.334028
  Al    -0.000348   -0.002692   -0.264825
  H      1.143386   -0.053935    1.034420
  H     -0.063613   -1.417048   -0.945371
  H     -1.143695    0.048036    1.034782
  H      0.063301    1.411117    3.014582
  H     -0.063022   -1.417875    3.014003
  H      0.062712    1.411944   -0.944808

 Multiplicity           Mult            ....    1
 Number of Electrons    NEL             ....   32
 Basis Dimension        Dim             ....   48

ORBITAL ENERGIES
----------------

  NO   OCC          E(Eh)            E(eV)
   0   2.0000     -56.612643     -1540.5083
   1   2.0000     -56.612587     -1540.5068
   2   2.0000      -4.356220      -118.5388
   3   2.0000      -4.356161      -118.5372
   4   2.0000      -2.847537       -77.4854
   5   2.0000      -2.847424       -77.4823
   6   2.0000      -2.845083       -77.4186
   7   2.0000      -2.844380       -77.3995
   8   2.0000      -2.840964       -77.3066
   9   2.0000      -2.840921       -77.3054
  10   2.0000      -0.581543       -15.8246
  11   2.0000      -0.444221       -12.0879
  12   2.0000      -0.403296       -10.9742
  13   2.0000      -0.380404       -10.3513
  14   2.0000      -0.370562       -10.0835
  15   2.0000      -0.354642        -9.6503
  16   0.0000      -0.024231        -0.6594
  17   0.0000       0.047053         1.2804
  18   0.0000       0.051394         1.3985
  19   0.0000       0.052916         1.4399
  20   0.0000       0.056812         1.5459

-------
TIMINGS
-------

Dispersion correction           -0.002155457
FINAL SINGLE POINT ENERGY      -487.785581957143

DIPOLE MOMENT
-------------

Method             : SCF
Type of density    : Electron Density
Multiplicity       :   1
Irrep              :   0
Energy             :  -487.7967977185015798 Eh
Basis              : AO
                                X                 Y                 Z
Electronic contribution:      0.000000037      -0.000029770      -0.000000093
Nuclear contribution   :      0.000000007       0.000019056       0.000000057
                        -----------------------------------------
Total Dipole Moment    :      0.000000044      -0.000010714      -0.000000035
                        -----------------------------------------
Magnitude (a.u.)       :      0.000010714
Magnitude (Debye)      :      0.000027232

VIBRATIONAL FREQUENCIES
-----------------------

Scaling factor for frequencies =  1.000000000  (already applied!)

     0:       0.00 cm**-1
     1:       0.00 cm**-1
     2:       0.00 cm**-1
     3:       0.00 cm**-1
     4:       0.00 cm**-1
     5:       0.00 cm**-1
     6:     203.61 cm**-1
     7:     380.30 cm**-1
     8:     425.40 cm**-1
     9:     470.03 cm**-1
    10:     491.48 cm**-1
    11:     640.56 cm**-1
    12:     711.81 cm**-1
    13:     756.97 cm**-1
    14:     771.16 cm**-1
    15:     867.40 cm**-1
    16:    1323.61 cm**-1
    17:    1436.26 cm**-1
    18:    1515.72 cm**-1
    19:    1564.39 cm**-1
    20:    2010.16 cm**-1
    21:    2017.09 cm**-1
    22:    2028.32 cm**-1
    23:    2034.80 cm**-1

IR SPECTRUM
-----------

 Mode   freq       eps      Int      T**2         TX        TY        TZ
       cm**-1   L/(mol*cm) km/mol    a.u.
----------------------------------------------------------------------------
  6:    203.61   0.002594   13.11  0.003976  ( 0.002799  0.062996  0.000013)
  7:    380.30   0.000000    0.00  0.000000  (-0.000000 -0.000001 -0.000000)
  8:    425.40   0.000000    0.00  0.000000  (-0.000000  0.000000 -0.000008)
  9:    470.03   0.000000    0.00  0.000000  ( 0.000000  0.000000  0.000001)
 10:    491.48   0.000000    0.00  0.000000  ( 0.000000  0.000000  0.000000)
 11:    640.56   0.053704  271.40  0.026163  (-0.161589  0.007217  0.000026)
 12:    711.81   0.124089  627.10  0.054402  ( 0.000035 -0.000049  0.233242)
 13:    756.97   0.000000    0.00  0.000000  (-0.000000 -0.000000 -0.000000)
 14:    771.16   0.000000    0.00  0.000000  ( 0.000003 -0.000000 -0.000001)
 15:    867.40   0.050045  252.91  0.018005  ( 0.005976  0.134048  0.000027)
 16:   1323.61   0.077681  392.57  0.018315  (-0.135197  0.006034  0.000022)
 17:   1436.26   0.000000    0.00  0.000000  ( 0.000000 -0.000000  0.000000)
 18:   1515.72   0.227589  1150.14  0.046857  (-0.000032  0.000045 -0.216465)
 19:   1564.39   0.000000    0.00  0.000000  (-0.000000 -0.000000 -0.000000)
 20:   2010.16   0.022772  115.08  0.003535  ( 0.000009 -0.000012  0.059458)
 21:   2017.09   0.000000    0.00  0.000000  (-0.000000 -0.000001  0.000000)
 22:   2028.32   0.000000    0.00  0.000000  ( 0.000000 -0.000000  0.000000)
 23:   2034.80   0.080101  404.80  0.012284  ( 0.004946  0.110725  0.000022)

--------------------------
THERMOCHEMISTRY AT 298.15K
--------------------------

Temperature         ...   298.15 K
Pressure            ...     1.00 atm
Total Mass          ...    60.01 AMU
Quasi RRHO          ...     True
Cut-Off Frequency   ...     1.00 cm^-1

Throughout the following assumptions are being made:
  (1) The electronic state is orbitally nondegenerate
  (2) There are no thermally accessible electronically excited states
  (3) Hindered rotations indicated by low frequency modes are not
      treated as such but are treated as vibrations and this may
      cause some error
  (4) All equations used are the standard statistical mechanics
      equations for an ideal gas
  (5) All vibrations are strictly harmonic

freq.     203.61  E(vib)   ...       0.35
freq.     380.30  E(vib)   ...       0.21
freq.     425.40  E(vib)   ...       0.18
freq.     470.03  E(vib)   ...       0.16
freq.     491.48  E(vib)   ...       0.14
freq.     640.56  E(vib)   ...       0.09
freq.     711.81  E(vib)   ...       0.07
freq.     756.97  E(vib)   ...       0.06
freq.     771.16  E(vib)   ...       0.05
freq.     867.40  E(vib)   ...       0.04
freq.    1323.61  E(vib)   ...       0.01
freq.    1436.26  E(vib)   ...       0.00
freq.    1515.72  E(vib)   ...       0.00
freq.    1564.39  E(vib)   ...       0.00
freq.    2010.16  E(vib)   ...       0.00
freq.    2017.09  E(vib)   ...       0.00
freq.    2028.32  E(vib)   ...       0.00
freq.    2034.80  E(vib)   ...       0.00

------------
INNER ENERGY
------------

The inner energy is: U= E(el) + E(ZPE) + E(vib) + E(rot) + E(trans)
    E(el)   - is the total energy from the electronic structure calculation
              = E(kin-el) + E(nuc-el) + E(el-el) + E(nuc-nuc)
    E(ZPE)  - the the zero temperature vibrational energy from the frequency calculation
    E(vib)  - the the finite temperature correction to E(ZPE) due to population
              of excited vibrational states
    E(rot)  - is the rotational thermal energy
    E(trans)- is the translational thermal energy

Summary of contributions to the inner energy U:
Electronic energy                ...   -487.78558196 Eh
Zero point energy                ...      0.04476388 Eh      28.09 kcal/mol
Thermal vibrational correction   ...      0.00216139 Eh       1.36 kcal/mol
Thermal rotational correction    ...      0.00141627 Eh       0.89 kcal/mol
Thermal translational correction ...      0.00141627 Eh       0.89 kcal/mol
-----------------------------------------------------------------------
Total thermal energy                   -487.73582414 Eh

Summary of corrections to the electronic energy:
(perhaps to be used in another calculation)
Total thermal correction                  0.00499394 Eh       3.13 kcal/mol
Non-thermal (ZPE) correction              0.04476388 Eh      28.09 kcal/mol
-----------------------------------------------------------------------
Total correction                          0.04975782 Eh      31.22 kcal/mol

--------
ENTHALPY
--------

The enthalpy is H = U + kB*T
                kB is Boltzmann's constant
Total thermal energy              ...   -487.73582414 Eh
Thermal Enthalpy correction       ...      0.00094421 Eh       0.59 kcal/mol
-----------------------------------------------------------------------
Total Enthalpy                    ...   -487.73487993 Eh

Note: Rotational entropy computed according to Herzberg
Infrared and Raman Spectra, Chapter V,1, Van Nostrand Reinhold, 1945
Point Group:  C2h, Symmetry Number:   2
Rotational constants in cm-1:     1.571832     0.153863     0.146583

Vibrational entropy computed according to the QRRHO of S. Grimme
Chem.Eur.J. 2012 18 9955 using a reference frequency of 100.0 cm-1

-------
ENTROPY
-------

The entropy contributions are T*S = T*(S(el)+S(vib)+S(rot)+S(trans))
     S(el)   - electronic entropy
     S(vib)  - vibrational entropy
     S(rot)  - rotational entropy
     S(trans)- translational entropy
The entropies will be listed as multiplied by the temperature to get
units of energy

Electronic entropy                ...      0.00000000 Eh      0.00 kcal/mol
Vibrational entropy               ...      0.00323948 Eh      2.03 kcal/mol
Rotational entropy                ...      0.01043295 Eh      6.55 kcal/mol
Translational entropy             ...      0.01814806 Eh     11.39 kcal/mol
-----------------------------------------------------------------------
Final entropy term                ...      0.03182049 Eh     19.97 kcal/mol

In case the symmetry of your molecule has not been determined correctly
or in case you have a reason to use a different symmetry number we print
out the resulting rotational entropy values for sn=1,12:

 non-linear molecules -----------------------------------
|  sn= 1 | S(rot)=       0.01108741 Eh      6.96 kcal/mol|
|  sn= 2 | S(rot)=       0.01043295 Eh      6.55 kcal/mol|
|  sn= 3 | S(rot)=       0.01005012 Eh      6.31 kcal/mol|
|  sn= 4 | S(rot)=       0.00977850 Eh      6.14 kcal/mol|
|  sn= 5 | S(rot)=       0.00956781 Eh      6.00 kcal/mol|
|  sn= 6 | S(rot)=       0.00939566 Eh      5.90 kcal/mol|
|  sn= 7 | S(rot)=       0.00925012 Eh      5.80 kcal/mol|
|  sn= 8 | S(rot)=       0.00912404 Eh      5.73 kcal/mol|
|  sn= 9 | S(rot)=       0.00901283 Eh      5.66 kcal/mol|
|  sn=10 | S(rot)=       0.00891335 Eh      5.59 kcal/mol|
|  sn=11 | S(rot)=       0.00882336 Eh      5.54 kcal/mol|
|  sn=12 | S(rot)=       0.00874121 Eh      5.49 kcal/mol|
 linear molecules ---------------------------------------
|  Dinfh | S(rot)=       0.00713879 Eh      4.48 kcal/mol|
|  Cinfv | S(rot)=       0.00779325 Eh      4.89 kcal/mol|
 --------------------------------------------------------

-------------------
GIBBS FREE ENERGY
-------------------

The Gibbs free energy is G = H - T*S

Total enthalpy                    ...   -487.73487993 Eh
Total entropy correction          ...     -0.03182049 Eh    -19.97 kcal/mol
-----------------------------------------------------------------------
Final Gibbs free energy         ...   -487.76670042 Eh

For completeness - the Gibbs free energy minus the electronic energy
G-E(el)                           ...      0.01888154 Eh     11.85 kcal/mol

                             ****ORCA TERMINATED NORMALLY****
TOTAL RUN TIME: 0 days 0 hours 2 minutes 37 seconds 235 msec
