                         Program Version 6.1.0  -  RELEASE   -
|  1> # Geometry optimization for (AlH3)n cluster
|  2>
|  3> %pal nprocs 24  end
|  4>
|  5> %geom MaxIter 500 end
|  6>
|  7>
|  8> ! PBE def2-TZVP
|  9> ! RKS	# closed shell for AlH3
| 10> ! D3    #  dispersion correction
| 11> ! Freq 	# Frequency analysis to check the stabiltity of the structures
| 12>
| 13> ! NoPop # population analysis not necessary
| 14>
| 15> ! DEFGRID3
| 16> ! TightSCF
| 17> ! TightOpt
| 18>
| 19> ! SmallPrint
| 20>
| 21>
| 22> * xyzFile 0 1 start.xyz # only maingroup elements H and Al so there should be no net spin
| 23>
| 24>                          ****END OF INPUT****
 Total Charge           Charge          ....    0
 Multiplicity           Mult            ....    1
 Number of Electrons    NEL             ....   48
Dispersion correction           -0.009081753
FINAL SINGLE POINT ENERGY      -732.254518001395
Dispersion correction             ... done (  0.1 sec)
Dispersion correction           -0.009090671
FINAL SINGLE POINT ENERGY      -732.255593874499
Dispersion correction             ... done (  0.0 sec)
Dispersion correction           -0.009117856
FINAL SINGLE POINT ENERGY      -732.257927367739
Dispersion correction             ... done (  0.0 sec)
FINAL SINGLE POINT ENERGY      -732.258778067242
FINAL SINGLE POINT ENERGY      -732.259149758939
FINAL SINGLE POINT ENERGY      -732.259279858317
FINAL SINGLE POINT ENERGY      -732.259408945232
FINAL SINGLE POINT ENERGY      -732.259439105954
FINAL SINGLE POINT ENERGY      -732.259451667300
FINAL SINGLE POINT ENERGY      -732.259461339051
FINAL SINGLE POINT ENERGY      -732.259478787306
FINAL SINGLE POINT ENERGY      -732.259479220844
FINAL SINGLE POINT ENERGY      -732.259479566844
FINAL SINGLE POINT ENERGY      -732.259479962216
FINAL SINGLE POINT ENERGY      -732.259480373044
FINAL SINGLE POINT ENERGY      -732.259480679534
FINAL SINGLE POINT ENERGY      -732.259480910372
Dispersion correction             ... done (  0.0 sec)
Dispersion correction           -0.009087816
FINAL SINGLE POINT ENERGY      -732.259481128364
Dispersion correction             ... done (  0.0 sec)
Dispersion correction           -0.009087377
FINAL SINGLE POINT ENERGY      -732.259481305926
Dispersion correction             ... done (  0.0 sec)
                    ***********************HURRAY********************

CARTESIAN COORDINATES (ANGSTROEM)
---------------------------------
  Al    -0.185720    1.539385    2.570911
  Al     0.020572   -0.025883   -0.087303
  H      0.898681   -0.998918    1.029883
  H     -1.105235   -0.906842   -0.775142
  H     -0.811378    0.904509    1.098319
  H     -1.465953    2.069801    3.343851
  H      0.252482    0.053048    3.309013
  H      1.122108    0.876690   -0.786890
  Al     0.302051   -1.492845    2.566700
  H      1.522630   -2.247160    3.244714
  H     -1.198691   -1.981389    2.391532
  H      1.175423    2.296005    2.264710

 Multiplicity           Mult            ....    1
 Number of Electrons    NEL             ....   48
 Basis Dimension        Dim             ....  165

ORBITAL ENERGIES
----------------

  NO   OCC          E(Eh)            E(eV)
   0   2.0000     -55.382163     -1507.0253
   1   2.0000     -55.381958     -1507.0197
   2   2.0000     -55.381099     -1506.9963
   3   2.0000      -3.942851      -107.2904
   4   2.0000      -3.942578      -107.2830
   5   2.0000      -3.941689      -107.2588
   6   2.0000      -2.547890       -69.3316
   7   2.0000      -2.547685       -69.3260
   8   2.0000      -2.546957       -69.3062
   9   2.0000      -2.545883       -69.2770
  10   2.0000      -2.545605       -69.2694
  11   2.0000      -2.544567       -69.2412
  12   2.0000      -2.540110       -69.1199
  13   2.0000      -2.539765       -69.1105
  14   2.0000      -2.538861       -69.0859
  15   2.0000      -0.482972       -13.1423
  16   2.0000      -0.396396       -10.7865
  17   2.0000      -0.393516       -10.7081
  18   2.0000      -0.313618        -8.5340
  19   2.0000      -0.307483        -8.3670
  20   2.0000      -0.296123        -8.0579
  21   2.0000      -0.287794        -7.8313
  22   2.0000      -0.275874        -7.5069
  23   2.0000      -0.270456        -7.3595
  24   0.0000      -0.059473        -1.6183
  25   0.0000      -0.054106        -1.4723
  26   0.0000      -0.050681        -1.3791
  27   0.0000      -0.044968        -1.2236
  28   0.0000      -0.022580        -0.6144

-------
TIMINGS
-------

Dispersion correction           -0.009086831
FINAL SINGLE POINT ENERGY      -732.259481419401

DIPOLE MOMENT
-------------

Method             : SCF
Type of density    : Electron Density
Multiplicity       :   1
Irrep              :   0
Energy             :  -732.2503945881924210 Eh
Basis              : AO
                                X                 Y                 Z
Electronic contribution:      0.051908081      -0.019930294       0.102657959
Nuclear contribution   :     -0.018038395       0.003298814      -0.027038238
                        -----------------------------------------
Total Dipole Moment    :      0.033869686      -0.016631480       0.075619722
                        -----------------------------------------
Magnitude (a.u.)       :      0.084510970
Magnitude (Debye)      :      0.214809815

VIBRATIONAL FREQUENCIES
-----------------------

Scaling factor for frequencies =  1.000000000  (already applied!)

     0:       0.00 cm**-1
     1:       0.00 cm**-1
     2:       0.00 cm**-1
     3:       0.00 cm**-1
     4:       0.00 cm**-1
     5:       0.00 cm**-1
     6:     -27.43 cm**-1  ***imaginary mode***
     7:     131.36 cm**-1
     8:     150.22 cm**-1
     9:     223.50 cm**-1
    10:     298.28 cm**-1
    11:     323.39 cm**-1
    12:     401.54 cm**-1
    13:     417.10 cm**-1
    14:     431.25 cm**-1
    15:     478.94 cm**-1
    16:     498.05 cm**-1
    17:     562.03 cm**-1
    18:     673.03 cm**-1
    19:     674.06 cm**-1
    20:     710.88 cm**-1
    21:     718.98 cm**-1
    22:     732.79 cm**-1
    23:     746.74 cm**-1
    24:    1044.05 cm**-1
    25:    1066.26 cm**-1
    26:    1109.65 cm**-1
    27:    1693.15 cm**-1
    28:    1748.81 cm**-1
    29:    1768.60 cm**-1
    30:    1898.35 cm**-1
    31:    1900.84 cm**-1
    32:    1901.62 cm**-1
    33:    1913.72 cm**-1
    34:    1915.08 cm**-1
    35:    1922.22 cm**-1

IR SPECTRUM
-----------

 Mode   freq       eps      Int      T**2         TX        TY        TZ
       cm**-1   L/(mol*cm) km/mol    a.u.
----------------------------------------------------------------------------
  7:    131.36   0.000271    1.37  0.000645  ( 0.010071 -0.000996  0.023289)
  8:    150.22   0.000035    0.17  0.000072  (-0.001307 -0.006635  0.005105)
  9:    223.50   0.000564    2.85  0.000787  (-0.001063 -0.001971 -0.027973)
 10:    298.28   0.001925    9.73  0.002014  ( 0.036171 -0.025684  0.006778)
 11:    323.39   0.000133    0.67  0.000129  (-0.006336  0.001586 -0.009270)
 12:    401.54   0.001045    5.28  0.000812  (-0.019586  0.020706 -0.000306)
 13:    417.10   0.000093    0.47  0.000070  (-0.000980 -0.001865  0.008076)
 14:    431.25   0.001727    8.73  0.001250  ( 0.000663 -0.004884 -0.035010)
 15:    478.94   0.000376    1.90  0.000245  (-0.015002  0.000752 -0.004411)
 16:    498.05   0.009459   47.80  0.005927  ( 0.066939 -0.038000  0.001452)
 17:    562.03   0.020682  104.52  0.011483  (-0.015466 -0.011006 -0.105466)
 18:    673.03   0.125082  632.11  0.057997  ( 0.006323  0.224719 -0.086361)
 19:    674.06   0.104758  529.40  0.048499  (-0.007418  0.094326  0.198864)
 20:    710.88   0.002180   11.02  0.000957  (-0.020213  0.007781  0.022088)
 21:    718.98   0.023409  118.30  0.010160  (-0.074793  0.059115  0.032740)
 22:    732.79   0.029599  149.58  0.012605  ( 0.015688  0.101244 -0.045918)
 23:    746.74   0.022392  113.16  0.009358  ( 0.036341  0.022804  0.086701)
 24:   1044.05   0.034761  175.67  0.010390  (-0.085542  0.022996 -0.050435)
 25:   1066.26   0.029174  147.43  0.008538  ( 0.035119 -0.024804 -0.081791)
 26:   1109.65   0.005079   25.67  0.001428  ( 0.035205 -0.013428 -0.002932)
 27:   1693.15   0.009765   49.35  0.001800  ( 0.005566 -0.029764  0.029712)
 28:   1748.81   0.169437  856.26  0.030235  ( 0.005594 -0.023592  0.172183)
 29:   1768.60   0.184740  933.60  0.032597  ( 0.024861 -0.175521 -0.034219)
 30:   1898.35   0.001229    6.21  0.000202  (-0.006475 -0.010291  0.007365)
 31:   1900.84   0.001556    7.86  0.000255  (-0.001945 -0.014766 -0.005796)
 32:   1901.62   0.002909   14.70  0.000477  ( 0.001460 -0.004942  0.021234)
 33:   1913.72   0.012184   61.57  0.001987  ( 0.027499 -0.028296  0.020737)
 34:   1915.08   0.007123   36.00  0.001161  ( 0.009224 -0.017499 -0.027737)
 35:   1922.22   0.073051  369.17  0.011859  (-0.103097 -0.034479  0.006454)

--------------------------
THERMOCHEMISTRY AT 298.15K
--------------------------

Temperature         ...   298.15 K
Pressure            ...     1.00 atm
Total Mass          ...    90.02 AMU
Quasi RRHO          ...     True
Cut-Off Frequency   ...     1.00 cm^-1

Throughout the following assumptions are being made:
  (1) The electronic state is orbitally nondegenerate
  (2) There are no thermally accessible electronically excited states
  (3) Hindered rotations indicated by low frequency modes are not
      treated as such but are treated as vibrations and this may
      cause some error
  (4) All equations used are the standard statistical mechanics
      equations for an ideal gas
  (5) All vibrations are strictly harmonic

freq.     131.36  E(vib)   ...       0.42
freq.     150.22  E(vib)   ...       0.40
freq.     223.50  E(vib)   ...       0.33
freq.     298.28  E(vib)   ...       0.27
freq.     323.39  E(vib)   ...       0.25
freq.     401.54  E(vib)   ...       0.19
freq.     417.10  E(vib)   ...       0.18
freq.     431.25  E(vib)   ...       0.18
freq.     478.94  E(vib)   ...       0.15
freq.     498.05  E(vib)   ...       0.14
freq.     562.03  E(vib)   ...       0.11
freq.     673.03  E(vib)   ...       0.08
freq.     674.06  E(vib)   ...       0.08
freq.     710.88  E(vib)   ...       0.07
freq.     718.98  E(vib)   ...       0.07
freq.     732.79  E(vib)   ...       0.06
freq.     746.74  E(vib)   ...       0.06
freq.    1044.05  E(vib)   ...       0.02
freq.    1066.26  E(vib)   ...       0.02
freq.    1109.65  E(vib)   ...       0.02
freq.    1693.15  E(vib)   ...       0.00
freq.    1748.81  E(vib)   ...       0.00
freq.    1768.60  E(vib)   ...       0.00
freq.    1898.35  E(vib)   ...       0.00
freq.    1900.84  E(vib)   ...       0.00
freq.    1901.62  E(vib)   ...       0.00
freq.    1913.72  E(vib)   ...       0.00
freq.    1915.08  E(vib)   ...       0.00
freq.    1922.22  E(vib)   ...       0.00

------------
INNER ENERGY
------------

The inner energy is: U= E(el) + E(ZPE) + E(vib) + E(rot) + E(trans)
    E(el)   - is the total energy from the electronic structure calculation
              = E(kin-el) + E(nuc-el) + E(el-el) + E(nuc-nuc)
    E(ZPE)  - the the zero temperature vibrational energy from the frequency calculation
    E(vib)  - the the finite temperature correction to E(ZPE) due to population
              of excited vibrational states
    E(rot)  - is the rotational thermal energy
    E(trans)- is the translational thermal energy

Summary of contributions to the inner energy U:
Electronic energy                ...   -732.25948142 Eh
Zero point energy                ...      0.06391279 Eh      40.11 kcal/mol
Thermal vibrational correction   ...      0.00493810 Eh       3.10 kcal/mol
Thermal rotational correction    ...      0.00141627 Eh       0.89 kcal/mol
Thermal translational correction ...      0.00141627 Eh       0.89 kcal/mol
-----------------------------------------------------------------------
Total thermal energy                   -732.18779799 Eh

Summary of corrections to the electronic energy:
(perhaps to be used in another calculation)
Total thermal correction                  0.00777064 Eh       4.88 kcal/mol
Non-thermal (ZPE) correction              0.06391279 Eh      40.11 kcal/mol
-----------------------------------------------------------------------
Total correction                          0.07168343 Eh      44.98 kcal/mol

--------
ENTHALPY
--------

The enthalpy is H = U + kB*T
                kB is Boltzmann's constant
Total thermal energy              ...   -732.18779799 Eh
Thermal Enthalpy correction       ...      0.00094421 Eh       0.59 kcal/mol
-----------------------------------------------------------------------
Total Enthalpy                    ...   -732.18685378 Eh

Note: Only C1 symmetry has been detected, increase convergence thresholds
      if your molecule has a higher symmetry. Symmetry factor of 1.0 is
      used for the rotational entropy correction.

Note: Rotational entropy computed according to Herzberg
Infrared and Raman Spectra, Chapter V,1, Van Nostrand Reinhold, 1945
Point Group:  C1, Symmetry Number:   1
Rotational constants in cm-1:     0.106682     0.103564     0.056539

Vibrational entropy computed according to the QRRHO of S. Grimme
Chem.Eur.J. 2012 18 9955 using a reference frequency of 100.0 cm-1

-------
ENTROPY
-------

The entropy contributions are T*S = T*(S(el)+S(vib)+S(rot)+S(trans))
     S(el)   - electronic entropy
     S(vib)  - vibrational entropy
     S(rot)  - rotational entropy
     S(trans)- translational entropy
The entropies will be listed as multiplied by the temperature to get
units of energy

Electronic entropy                ...      0.00000000 Eh      0.00 kcal/mol
Vibrational entropy               ...      0.00796842 Eh      5.00 kcal/mol
Rotational entropy                ...      0.01299403 Eh      8.15 kcal/mol
Translational entropy             ...      0.01872231 Eh     11.75 kcal/mol
-----------------------------------------------------------------------
Final entropy term                ...      0.03968476 Eh     24.90 kcal/mol

In case the symmetry of your molecule has not been determined correctly
or in case you have a reason to use a different symmetry number we print
out the resulting rotational entropy values for sn=1,12:

 non-linear molecules -----------------------------------
|  sn= 1 | S(rot)=       0.01299403 Eh      8.15 kcal/mol|
|  sn= 2 | S(rot)=       0.01233958 Eh      7.74 kcal/mol|
|  sn= 3 | S(rot)=       0.01195674 Eh      7.50 kcal/mol|
|  sn= 4 | S(rot)=       0.01168512 Eh      7.33 kcal/mol|
|  sn= 5 | S(rot)=       0.01147443 Eh      7.20 kcal/mol|
|  sn= 6 | S(rot)=       0.01130229 Eh      7.09 kcal/mol|
|  sn= 7 | S(rot)=       0.01115674 Eh      7.00 kcal/mol|
|  sn= 8 | S(rot)=       0.01103066 Eh      6.92 kcal/mol|
|  sn= 9 | S(rot)=       0.01091945 Eh      6.85 kcal/mol|
|  sn=10 | S(rot)=       0.01081997 Eh      6.79 kcal/mol|
|  sn=11 | S(rot)=       0.01072998 Eh      6.73 kcal/mol|
|  sn=12 | S(rot)=       0.01064783 Eh      6.68 kcal/mol|
 linear molecules ---------------------------------------
|  Dinfh | S(rot)=       0.00803827 Eh      5.04 kcal/mol|
|  Cinfv | S(rot)=       0.00869273 Eh      5.45 kcal/mol|
 --------------------------------------------------------

-------------------
GIBBS FREE ENERGY
-------------------

The Gibbs free energy is G = H - T*S

Total enthalpy                    ...   -732.18685378 Eh
Total entropy correction          ...     -0.03968476 Eh    -24.90 kcal/mol
-----------------------------------------------------------------------
Final Gibbs free energy         ...   -732.22653853 Eh

For completeness - the Gibbs free energy minus the electronic energy
G-E(el)                           ...      0.03294289 Eh     20.67 kcal/mol

                             ****ORCA TERMINATED NORMALLY****
TOTAL RUN TIME: 0 days 0 hours 3 minutes 44 seconds 758 msec
