                         Program Version 5.0.4 -  RELEASE  -
|  1> # Geometry optimization for (AlH3)n cluster
|  2>
|  3> ! PBE 	# functional used for the MOF calculations later (non-expensive)
|  4> ! RKS	# closed shell for AlH3
|  5> ! D3BJ  # better geometries at low cost
|  6> ! pc-3 	# proven basiset from earlier work
|  7> ! Freq 	# Frequency analysis to check the stabiltity of the structures
|  8>
|  9> ! NoPop # population analysis not necessary
| 10>
| 11> ! RI 		# speed up calculation
| 12> ! AutoAux # no auxiliary basis set for pc implemented
| 13> ! DEFGRID3 # dense integration grid in space
| 14> ! TightSCF #
| 15> ! TightOpt # thight convergence criteria for geometry optimizations
| 16>
| 17> ! SmallPrint
| 18>
| 19>
| 20> * xyzFile 0 1 start.xyz # only maingroup elements H and Al so there should be no net spin
| 21>
| 22>                          ****END OF INPUT****
 Total Charge           Charge          ....    0
 Multiplicity           Mult            ....    1
 Number of Electrons    NEL             ....   32
Dispersion correction           -0.004658741
FINAL SINGLE POINT ENERGY      -488.117008001382
Dispersion correction            ... done
Dispersion correction           -0.004658668
FINAL SINGLE POINT ENERGY      -488.126142715066
Dispersion correction            ... done
Dispersion correction           -0.004638844
FINAL SINGLE POINT ENERGY      -488.148913987961
Dispersion correction            ... done
FINAL SINGLE POINT ENERGY      -488.166295648873
FINAL SINGLE POINT ENERGY      -488.177777162409
FINAL SINGLE POINT ENERGY      -488.184021538497
FINAL SINGLE POINT ENERGY      -488.185824192888
FINAL SINGLE POINT ENERGY      -488.185961961070
FINAL SINGLE POINT ENERGY      -488.185996984758
FINAL SINGLE POINT ENERGY      -488.186023693037
Dispersion correction           -0.004453149
FINAL SINGLE POINT ENERGY      -488.186028906120
Dispersion correction            ... done
Dispersion correction           -0.004453878
FINAL SINGLE POINT ENERGY      -488.186029533765
Dispersion correction            ... done
                    ***********************HURRAY********************

CARTESIAN COORDINATES (ANGSTROEM)
---------------------------------
  Al    -0.000537   -0.001250   -0.270955
  H      0.570119    1.300512   -0.970992
  H     -0.574785   -1.311095   -0.952846
  H      1.065440   -0.461528    1.033933
  Al    -0.000571   -0.001468    2.338874
  H      0.570059    1.300137    3.039222
  H     -0.574846   -1.311467    3.020457
  H     -1.061279    0.470829    1.033987

 Multiplicity           Mult            ....    1
 Number of Electrons    NEL             ....   32
 Basis Dimension        Dim             ....  332

ORBITAL ENERGIES
----------------

  NO   OCC          E(Eh)            E(eV)
   0   2.0000     -55.360592     -1506.4383
   1   2.0000     -55.360592     -1506.4383
   2   2.0000      -3.934382      -107.0600
   3   2.0000      -3.934311      -107.0580
   4   2.0000      -2.538921       -69.0875
   5   2.0000      -2.538850       -69.0856
   6   2.0000      -2.536033       -69.0090
   7   2.0000      -2.535349       -68.9904
   8   2.0000      -2.531670       -68.8902
   9   2.0000      -2.531613       -68.8887
  10   2.0000      -0.466696       -12.6994
  11   2.0000      -0.350893        -9.5483
  12   2.0000      -0.317991        -8.6530
  13   2.0000      -0.294071        -8.0021
  14   2.0000      -0.284193        -7.7333
  15   2.0000      -0.270076        -7.3491
  16   0.0000      -0.070586        -1.9207
  17   0.0000      -0.025556        -0.6954
  18   0.0000      -0.024247        -0.6598
  19   0.0000      -0.019213        -0.5228
  20   0.0000      -0.012600        -0.3429

-------
TIMINGS
-------

Dispersion correction           -0.004454266
FINAL SINGLE POINT ENERGY      -488.186029660135

DIPOLE MOMENT
-------------
                                X             Y             Z
Electronic contribution:      0.00365       0.00829      -0.00000
Nuclear contribution   :     -0.00172      -0.00390       0.00000
                        -----------------------------------------
Total Dipole Moment    :      0.00193       0.00439      -0.00000
                        -----------------------------------------
Magnitude (a.u.)       :      0.00480
Magnitude (Debye)      :      0.01219

Dispersion correction in the Hessian             ... done   (      3.2 sec)

VIBRATIONAL FREQUENCIES
-----------------------

Scaling factor for frequencies =  1.000000000  (already applied!)

   0:         0.00 cm**-1
   1:         0.00 cm**-1
   2:         0.00 cm**-1
   3:         0.00 cm**-1
   4:         0.00 cm**-1
   5:         0.00 cm**-1
   6:       195.08 cm**-1
   7:       365.76 cm**-1
   8:       407.02 cm**-1
   9:       453.19 cm**-1
  10:       468.32 cm**-1
  11:       601.31 cm**-1
  12:       679.83 cm**-1
  13:       711.98 cm**-1
  14:       718.40 cm**-1
  15:       785.79 cm**-1
  16:      1270.38 cm**-1
  17:      1371.72 cm**-1
  18:      1431.00 cm**-1
  19:      1482.33 cm**-1
  20:      1901.97 cm**-1
  21:      1906.65 cm**-1
  22:      1917.75 cm**-1
  23:      1925.34 cm**-1

IR SPECTRUM
-----------

 Mode   freq       eps      Int      T**2         TX        TY        TZ
       cm**-1   L/(mol*cm) km/mol    a.u.
----------------------------------------------------------------------------
  6:    195.08   0.002303   11.64  0.003683  (-0.024355 -0.055589 -0.000007)
  7:    365.76   0.000000    0.00  0.000000  (-0.000257 -0.000586 -0.000000)
  8:    407.02   0.000000    0.00  0.000000  ( 0.000004 -0.000002  0.000085)
  9:    453.19   0.000001    0.00  0.000000  (-0.000000 -0.000000 -0.000682)
 10:    468.32   0.000000    0.00  0.000000  (-0.000002  0.000001 -0.000004)
 11:    601.31   0.044236  223.55  0.022957  (-0.138801  0.060758  0.000005)
 12:    679.83   0.106996  540.71  0.049114  ( 0.000006  0.000027 -0.221617)
 13:    711.98   0.000017    0.08  0.000007  ( 0.002484 -0.001081  0.000000)
 14:    718.40   0.000006    0.03  0.000003  (-0.000637 -0.001453  0.000005)
 15:    785.79   0.031183  157.59  0.012384  (-0.044683 -0.101917 -0.000020)
 16:   1270.38   0.049619  250.75  0.012189  ( 0.101113 -0.044328 -0.000009)
 17:   1371.72   0.000000    0.00  0.000000  (-0.000000  0.000000 -0.000001)
 18:   1431.00   0.180469  912.02  0.039355  ( 0.000001  0.000020 -0.198382)
 19:   1482.33   0.000001    0.00  0.000000  (-0.000150 -0.000341 -0.000001)
 20:   1901.97   0.024680  124.72  0.004049  (-0.000012 -0.000031  0.063634)
 21:   1906.65   0.000002    0.01  0.000000  (-0.000248 -0.000564 -0.000033)
 22:   1917.75   0.000008    0.04  0.000001  (-0.000014 -0.000032 -0.001162)
 23:   1925.34   0.067777  342.52  0.010985  ( 0.042084  0.095991  0.000025)

--------------------------
THERMOCHEMISTRY AT 298.15K
--------------------------

Temperature         ... 298.15 K
Pressure            ... 1.00 atm
Total Mass          ... 60.01 AMU

Throughout the following assumptions are being made:
  (1) The electronic state is orbitally nondegenerate
  (2) There are no thermally accessible electronically excited states
  (3) Hindered rotations indicated by low frequency modes are not
      treated as such but are treated as vibrations and this may
      cause some error
  (4) All equations used are the standard statistical mechanics
      equations for an ideal gas
  (5) All vibrations are strictly harmonic

freq.     195.08  E(vib)   ...       0.36
freq.     365.76  E(vib)   ...       0.22
freq.     407.02  E(vib)   ...       0.19
freq.     453.19  E(vib)   ...       0.16
freq.     468.32  E(vib)   ...       0.16
freq.     601.31  E(vib)   ...       0.10
freq.     679.83  E(vib)   ...       0.08
freq.     711.98  E(vib)   ...       0.07
freq.     718.40  E(vib)   ...       0.07
freq.     785.79  E(vib)   ...       0.05
freq.    1270.38  E(vib)   ...       0.01
freq.    1371.72  E(vib)   ...       0.01
freq.    1431.00  E(vib)   ...       0.00
freq.    1482.33  E(vib)   ...       0.00
freq.    1901.97  E(vib)   ...       0.00
freq.    1906.65  E(vib)   ...       0.00
freq.    1917.75  E(vib)   ...       0.00
freq.    1925.34  E(vib)   ...       0.00

------------
INNER ENERGY
------------

The inner energy is: U= E(el) + E(ZPE) + E(vib) + E(rot) + E(trans)
    E(el)   - is the total energy from the electronic structure calculation
              = E(kin-el) + E(nuc-el) + E(el-el) + E(nuc-nuc)
    E(ZPE)  - the the zero temperature vibrational energy from the frequency calculation
    E(vib)  - the the finite temperature correction to E(ZPE) due to population
              of excited vibrational states
    E(rot)  - is the rotational thermal energy
    E(trans)- is the translational thermal energy

Summary of contributions to the inner energy U:
Electronic energy                ...   -488.18602966 Eh
Zero point energy                ...      0.04235989 Eh      26.58 kcal/mol
Thermal vibrational correction   ...      0.00233763 Eh       1.47 kcal/mol
Thermal rotational correction    ...      0.00141627 Eh       0.89 kcal/mol
Thermal translational correction ...      0.00141627 Eh       0.89 kcal/mol
-----------------------------------------------------------------------
Total thermal energy                   -488.13849960 Eh

Summary of corrections to the electronic energy:
(perhaps to be used in another calculation)
Total thermal correction                  0.00517017 Eh       3.24 kcal/mol
Non-thermal (ZPE) correction              0.04235989 Eh      26.58 kcal/mol
-----------------------------------------------------------------------
Total correction                          0.04753006 Eh      29.83 kcal/mol

--------
ENTHALPY
--------

The enthalpy is H = U + kB*T
                kB is Boltzmann's constant
Total free energy                 ...   -488.13849960 Eh
Thermal Enthalpy correction       ...      0.00094421 Eh       0.59 kcal/mol
-----------------------------------------------------------------------
Total Enthalpy                    ...   -488.13755539 Eh

Note: Rotational entropy computed according to Herzberg
Infrared and Raman Spectra, Chapter V,1, Van Nostrand Reinhold, 1945
Point Group:  C2v, Symmetry Number:   2
Rotational constants in cm-1:     1.544563     0.152324     0.145139

Vibrational entropy computed according to the QRRHO of S. Grimme
Chem.Eur.J. 2012 18 9955

-------
ENTROPY
-------

The entropy contributions are T*S = T*(S(el)+S(vib)+S(rot)+S(trans))
     S(el)   - electronic entropy
     S(vib)  - vibrational entropy
     S(rot)  - rotational entropy
     S(trans)- translational entropy
The entropies will be listed as multiplied by the temperature to get
units of energy

Electronic entropy                ...      0.00000000 Eh      0.00 kcal/mol
Vibrational entropy               ...      0.00352259 Eh      2.21 kcal/mol
Rotational entropy                ...      0.01045064 Eh      6.56 kcal/mol
Translational entropy             ...      0.01814806 Eh     11.39 kcal/mol
-----------------------------------------------------------------------
Final entropy term                ...      0.03212128 Eh     20.16 kcal/mol

In case the symmetry of your molecule has not been determined correctly
or in case you have a reason to use a different symmetry number we print
out the resulting rotational entropy values for sn=1,12 :
 --------------------------------------------------------
|  sn= 1 | S(rot)=       0.01110509 Eh      6.97 kcal/mol|
|  sn= 2 | S(rot)=       0.01045064 Eh      6.56 kcal/mol|
|  sn= 3 | S(rot)=       0.01006780 Eh      6.32 kcal/mol|
|  sn= 4 | S(rot)=       0.00979618 Eh      6.15 kcal/mol|
|  sn= 5 | S(rot)=       0.00958549 Eh      6.01 kcal/mol|
|  sn= 6 | S(rot)=       0.00941335 Eh      5.91 kcal/mol|
|  sn= 7 | S(rot)=       0.00926780 Eh      5.82 kcal/mol|
|  sn= 8 | S(rot)=       0.00914172 Eh      5.74 kcal/mol|
|  sn= 9 | S(rot)=       0.00903051 Eh      5.67 kcal/mol|
|  sn=10 | S(rot)=       0.00893104 Eh      5.60 kcal/mol|
|  sn=11 | S(rot)=       0.00884104 Eh      5.55 kcal/mol|
|  sn=12 | S(rot)=       0.00875889 Eh      5.50 kcal/mol|
 --------------------------------------------------------

-------------------
GIBBS FREE ENERGY
-------------------

The Gibbs free energy is G = H - T*S

Total enthalpy                    ...   -488.13755539 Eh
Total entropy correction          ...     -0.03212128 Eh    -20.16 kcal/mol
-----------------------------------------------------------------------
Final Gibbs free energy         ...   -488.16967667 Eh

For completeness - the Gibbs free energy minus the electronic energy
G-E(el)                           ...      0.01635299 Eh     10.26 kcal/mol

                             ****ORCA TERMINATED NORMALLY****
TOTAL RUN TIME: 0 days 0 hours 42 minutes 52 seconds 23 msec
