                         Program Version 6.1.0  -  RELEASE   -
|  1> # Geometry optimization for (AlH3)n cluster
|  2>
|  3> %pal nprocs 24  end
|  4>
|  5> %geom MaxIter 500 end
|  6>
|  7>
|  8> ! PBE pc-1
|  9> ! RKS	# closed shell for AlH3
| 10> ! D3    #  dispersion correction
| 11> ! Freq 	# Frequency analysis to check the stabiltity of the structures
| 12>
| 13> ! NoPop # population analysis not necessary
| 14>
| 15> ! DEFGRID3
| 16> ! TightSCF
| 17> ! TightOpt
| 18>
| 19> ! SmallPrint
| 20>
| 21>
| 22> * xyzFile 0 1 start.xyz # only maingroup elements H and Al so there should be no net spin
| 23>
| 24>                          ****END OF INPUT****
 Total Charge           Charge          ....    0
 Multiplicity           Mult            ....    1
 Number of Electrons    NEL             ....   16
Dispersion correction           -0.001101509
FINAL SINGLE POINT ENERGY      -244.018718880391
Dispersion correction             ... done (  0.1 sec)
Dispersion correction           -0.001090829
FINAL SINGLE POINT ENERGY      -244.032115356533
Dispersion correction             ... done (  0.1 sec)
Dispersion correction           -0.001082988
FINAL SINGLE POINT ENERGY      -244.040559884274
Dispersion correction             ... done (  0.1 sec)
FINAL SINGLE POINT ENERGY      -244.044429996870
FINAL SINGLE POINT ENERGY      -244.044808912229
FINAL SINGLE POINT ENERGY      -244.044825711228
FINAL SINGLE POINT ENERGY      -244.044846423887
FINAL SINGLE POINT ENERGY      -244.044848729230
FINAL SINGLE POINT ENERGY      -244.044849991084
Dispersion correction             ... done (  0.1 sec)
Dispersion correction           -0.001079133
FINAL SINGLE POINT ENERGY      -244.044850465018
Dispersion correction             ... done (  0.1 sec)
Dispersion correction           -0.001079090
FINAL SINGLE POINT ENERGY      -244.044850570052
Dispersion correction             ... done (  0.1 sec)
                    ***********************HURRAY********************

CARTESIAN COORDINATES (ANGSTROEM)
---------------------------------
  Al    -1.365121    0.622418   -0.208465
  H     -0.536686    0.414286    1.143598
  H     -1.297477    2.021416   -0.980432
  H     -2.261166   -0.568471   -0.788631

 Multiplicity           Mult            ....    1
 Number of Electrons    NEL             ....   16
 Basis Dimension        Dim             ....   33

ORBITAL ENERGIES
----------------

  NO   OCC          E(Eh)            E(eV)
   0   2.0000     -55.363275     -1506.5113
   1   2.0000      -3.935564      -107.0922
   2   2.0000      -2.545319       -69.2617
   3   2.0000      -2.533529       -68.9408
   4   2.0000      -2.533529       -68.9408
   5   2.0000      -0.377445       -10.2708
   6   2.0000      -0.267860        -7.2888
   7   2.0000      -0.267858        -7.2888
   8   0.0000      -0.093758        -2.5513
   9   0.0000       0.010552         0.2871
  10   0.0000       0.033284         0.9057
  11   0.0000       0.033288         0.9058
  12   0.0000       0.172535         4.6949

-------
TIMINGS
-------

Dispersion correction           -0.001079085
FINAL SINGLE POINT ENERGY      -244.044850575146

DIPOLE MOMENT
-------------

Method             : SCF
Type of density    : Electron Density
Multiplicity       :   1
Irrep              :   0
Energy             :  -244.0437714905265238 Eh
Basis              : AO
                                X                 Y                 Z
Electronic contribution:     -0.000049883       0.000032127       0.000107934
Nuclear contribution   :      0.000030492      -0.000019083      -0.000062609
                        -----------------------------------------
Total Dipole Moment    :     -0.000019390       0.000013045       0.000045325
                        -----------------------------------------
Magnitude (a.u.)       :      0.000050995
Magnitude (Debye)      :      0.000129619

VIBRATIONAL FREQUENCIES
-----------------------

Scaling factor for frequencies =  1.000000000  (already applied!)

     0:       0.00 cm**-1
     1:       0.00 cm**-1
     2:       0.00 cm**-1
     3:       0.00 cm**-1
     4:       0.00 cm**-1
     5:       0.00 cm**-1
     6:     679.58 cm**-1
     7:     765.58 cm**-1
     8:     765.58 cm**-1
     9:    1884.44 cm**-1
    10:    1897.35 cm**-1
    11:    1897.35 cm**-1

IR SPECTRUM
-----------

 Mode   freq       eps      Int      T**2         TX        TY        TZ
       cm**-1   L/(mol*cm) km/mol    a.u.
----------------------------------------------------------------------------
  6:    679.58   0.065331  330.15  0.030000  ( 0.135354 -0.057133 -0.091734)
  7:    765.58   0.041800  211.24  0.017038  (-0.023204  0.090847 -0.090812)
  8:    765.58   0.041802  211.25  0.017039  (-0.078058 -0.083265 -0.063348)
  9:   1884.44   0.000000    0.00  0.000000  ( 0.000014 -0.000022  0.000034)
 10:   1897.35   0.054393  274.88  0.008946  (-0.033785 -0.088197  0.005103)
 11:   1897.35   0.054390  274.87  0.008946  ( 0.048388 -0.013905  0.080068)

--------------------------
THERMOCHEMISTRY AT 298.15K
--------------------------

Temperature         ...   298.15 K
Pressure            ...     1.00 atm
Total Mass          ...    30.01 AMU
Quasi RRHO          ...     True
Cut-Off Frequency   ...     1.00 cm^-1

Throughout the following assumptions are being made:
  (1) The electronic state is orbitally nondegenerate
  (2) There are no thermally accessible electronically excited states
  (3) Hindered rotations indicated by low frequency modes are not
      treated as such but are treated as vibrations and this may
      cause some error
  (4) All equations used are the standard statistical mechanics
      equations for an ideal gas
  (5) All vibrations are strictly harmonic

freq.     679.58  E(vib)   ...       0.08
freq.     765.58  E(vib)   ...       0.06
freq.     765.58  E(vib)   ...       0.06
freq.    1884.44  E(vib)   ...       0.00
freq.    1897.35  E(vib)   ...       0.00
freq.    1897.35  E(vib)   ...       0.00

------------
INNER ENERGY
------------

The inner energy is: U= E(el) + E(ZPE) + E(vib) + E(rot) + E(trans)
    E(el)   - is the total energy from the electronic structure calculation
              = E(kin-el) + E(nuc-el) + E(el-el) + E(nuc-nuc)
    E(ZPE)  - the the zero temperature vibrational energy from the frequency calculation
    E(vib)  - the the finite temperature correction to E(ZPE) due to population
              of excited vibrational states
    E(rot)  - is the rotational thermal energy
    E(trans)- is the translational thermal energy

Summary of contributions to the inner energy U:
Electronic energy                ...   -244.04485058 Eh
Zero point energy                ...      0.01797446 Eh      11.28 kcal/mol
Thermal vibrational correction   ...      0.00030182 Eh       0.19 kcal/mol
Thermal rotational correction    ...      0.00141627 Eh       0.89 kcal/mol
Thermal translational correction ...      0.00141627 Eh       0.89 kcal/mol
-----------------------------------------------------------------------
Total thermal energy                   -244.02374174 Eh

Summary of corrections to the electronic energy:
(perhaps to be used in another calculation)
Total thermal correction                  0.00313437 Eh       1.97 kcal/mol
Non-thermal (ZPE) correction              0.01797446 Eh      11.28 kcal/mol
-----------------------------------------------------------------------
Total correction                          0.02110883 Eh      13.25 kcal/mol

--------
ENTHALPY
--------

The enthalpy is H = U + kB*T
                kB is Boltzmann's constant
Total thermal energy              ...   -244.02374174 Eh
Thermal Enthalpy correction       ...      0.00094421 Eh       0.59 kcal/mol
-----------------------------------------------------------------------
Total Enthalpy                    ...   -244.02279753 Eh

Note: Rotational entropy computed according to Herzberg
Infrared and Raman Spectra, Chapter V,1, Van Nostrand Reinhold, 1945
Point Group:  D3h, Symmetry Number:   6
Rotational constants in cm-1:     4.359144     4.359021     2.179541

Vibrational entropy computed according to the QRRHO of S. Grimme
Chem.Eur.J. 2012 18 9955 using a reference frequency of 100.0 cm-1

-------
ENTROPY
-------

The entropy contributions are T*S = T*(S(el)+S(vib)+S(rot)+S(trans))
     S(el)   - electronic entropy
     S(vib)  - vibrational entropy
     S(rot)  - rotational entropy
     S(trans)- translational entropy
The entropies will be listed as multiplied by the temperature to get
units of energy

Electronic entropy                ...      0.00000000 Eh      0.00 kcal/mol
Vibrational entropy               ...      0.00038620 Eh      0.24 kcal/mol
Rotational entropy                ...      0.00606117 Eh      3.80 kcal/mol
Translational entropy             ...      0.01716637 Eh     10.77 kcal/mol
-----------------------------------------------------------------------
Final entropy term                ...      0.02361375 Eh     14.82 kcal/mol

In case the symmetry of your molecule has not been determined correctly
or in case you have a reason to use a different symmetry number we print
out the resulting rotational entropy values for sn=1,12:

 non-linear molecules -----------------------------------
|  sn= 1 | S(rot)=       0.00775292 Eh      4.87 kcal/mol|
|  sn= 2 | S(rot)=       0.00709846 Eh      4.45 kcal/mol|
|  sn= 3 | S(rot)=       0.00671563 Eh      4.21 kcal/mol|
|  sn= 4 | S(rot)=       0.00644400 Eh      4.04 kcal/mol|
|  sn= 5 | S(rot)=       0.00623332 Eh      3.91 kcal/mol|
|  sn= 6 | S(rot)=       0.00606117 Eh      3.80 kcal/mol|
|  sn= 7 | S(rot)=       0.00591563 Eh      3.71 kcal/mol|
|  sn= 8 | S(rot)=       0.00578955 Eh      3.63 kcal/mol|
|  sn= 9 | S(rot)=       0.00567834 Eh      3.56 kcal/mol|
|  sn=10 | S(rot)=       0.00557886 Eh      3.50 kcal/mol|
|  sn=11 | S(rot)=       0.00548887 Eh      3.44 kcal/mol|
|  sn=12 | S(rot)=       0.00540671 Eh      3.39 kcal/mol|
 linear molecules ---------------------------------------
|  Dinfh | S(rot)=       0.00459018 Eh      2.88 kcal/mol|
|  Cinfv | S(rot)=       0.00524464 Eh      3.29 kcal/mol|
 --------------------------------------------------------

-------------------
GIBBS FREE ENERGY
-------------------

The Gibbs free energy is G = H - T*S

Total enthalpy                    ...   -244.02279753 Eh
Total entropy correction          ...     -0.02361375 Eh    -14.82 kcal/mol
-----------------------------------------------------------------------
Final Gibbs free energy         ...   -244.04641128 Eh

For completeness - the Gibbs free energy minus the electronic energy
G-E(el)                           ...     -0.00156071 Eh     -0.98 kcal/mol

                             ****ORCA TERMINATED NORMALLY****
TOTAL RUN TIME: 0 days 0 hours 1 minutes 29 seconds 52 msec
