                         Program Version 6.1.0  -  RELEASE   -
|  1> # Geometry optimization for (AlH3)n cluster
|  2>
|  3> %pal nprocs 24  end
|  4>
|  5> %geom MaxIter 500 end
|  6>
|  7> %cpcm
|  8> 	epsilon 1.95778548766667
|  9> end
| 10>
| 11> ! PBE def2-TZVP
| 12> ! RKS	# closed shell for AlH3
| 13> ! D3    #  dispersion correction
| 14> ! Freq 	# Frequency analysis to check the stabiltity of the structures
| 15>
| 16> ! NoPop # population analysis not necessary
| 17>
| 18> ! DEFGRID3
| 19> ! TightSCF
| 20> ! TightOpt
| 21>
| 22> ! SmallPrint
| 23>
| 24>
| 25> * xyzFile 0 1 start.xyz # only maingroup elements H and Al so there should be no net spin
| 26>
| 27>                          ****END OF INPUT****
 Total Charge           Charge          ....    0
 Multiplicity           Mult            ....    1
 Number of Electrons    NEL             ....   48
Dispersion correction           -0.009084061
FINAL SINGLE POINT ENERGY      -732.260010073121
Dispersion correction             ... done (  0.1 sec)
Dispersion correction           -0.009089777
FINAL SINGLE POINT ENERGY      -732.260866306667
Dispersion correction             ... done (  0.1 sec)
Dispersion correction           -0.009109307
FINAL SINGLE POINT ENERGY      -732.262510706681
Dispersion correction             ... done (  0.1 sec)
FINAL SINGLE POINT ENERGY      -732.262753934589
FINAL SINGLE POINT ENERGY      -732.263001101524
FINAL SINGLE POINT ENERGY      -732.263195302924
FINAL SINGLE POINT ENERGY      -732.263225447056
FINAL SINGLE POINT ENERGY      -732.263232967501
FINAL SINGLE POINT ENERGY      -732.263238687390
FINAL SINGLE POINT ENERGY      -732.263243536605
FINAL SINGLE POINT ENERGY      -732.263249296084
FINAL SINGLE POINT ENERGY      -732.263249537351
FINAL SINGLE POINT ENERGY      -732.263249732277
FINAL SINGLE POINT ENERGY      -732.263249935885
FINAL SINGLE POINT ENERGY      -732.263250125430
FINAL SINGLE POINT ENERGY      -732.263250328289
FINAL SINGLE POINT ENERGY      -732.263250541659
Dispersion correction             ... done (  0.1 sec)
Dispersion correction           -0.009080590
FINAL SINGLE POINT ENERGY      -732.263250720250
Dispersion correction             ... done (  0.1 sec)
Dispersion correction           -0.009079430
FINAL SINGLE POINT ENERGY      -732.263250823858
Dispersion correction             ... done (  0.1 sec)
                    ***********************HURRAY********************

CARTESIAN COORDINATES (ANGSTROEM)
---------------------------------
  Al    -0.196819    1.523819    2.573528
  Al     0.013342   -0.019399   -0.084719
  H      0.886027   -0.985006    1.038742
  H     -1.112723   -0.898668   -0.777008
  H     -0.821167    0.917246    1.090982
  H     -1.465317    2.107120    3.329987
  H      0.166895    0.024127    3.318741
  H      1.117615    0.876414   -0.791259
  Al     0.291532   -1.508875    2.563938
  H      1.528538   -2.228325    3.251878
  H     -1.186259   -2.058752    2.367424
  H      1.194666    2.235360    2.288135

 Multiplicity           Mult            ....    1
 Number of Electrons    NEL             ....   48
 Basis Dimension        Dim             ....  165

ORBITAL ENERGIES
----------------

  NO   OCC          E(Eh)            E(eV)
   0   2.0000     -55.377141     -1506.8886
   1   2.0000     -55.377088     -1506.8872
   2   2.0000     -55.376539     -1506.8722
   3   2.0000      -3.937450      -107.1435
   4   2.0000      -3.937444      -107.1433
   5   2.0000      -3.936820      -107.1263
   6   2.0000      -2.542480       -69.1844
   7   2.0000      -2.542426       -69.1829
   8   2.0000      -2.542022       -69.1719
   9   2.0000      -2.540466       -69.1296
  10   2.0000      -2.540387       -69.1274
  11   2.0000      -2.539633       -69.1069
  12   2.0000      -2.534852       -68.9768
  13   2.0000      -2.534811       -68.9757
  14   2.0000      -2.534168       -68.9582
  15   2.0000      -0.475773       -12.9464
  16   2.0000      -0.389493       -10.5987
  17   2.0000      -0.386945       -10.5293
  18   2.0000      -0.307072        -8.3559
  19   2.0000      -0.301709        -8.2099
  20   2.0000      -0.291175        -7.9233
  21   2.0000      -0.283152        -7.7049
  22   2.0000      -0.271544        -7.3891
  23   2.0000      -0.266400        -7.2491
  24   0.0000      -0.052078        -1.4171
  25   0.0000      -0.046684        -1.2703
  26   0.0000      -0.042699        -1.1619
  27   0.0000      -0.036781        -1.0009
  28   0.0000      -0.016834        -0.4581

-------
TIMINGS
-------

Dispersion correction           -0.009078763
FINAL SINGLE POINT ENERGY      -732.263250874713

DIPOLE MOMENT
-------------

Method             : SCF
Type of density    : Electron Density
Multiplicity       :   1
Irrep              :   0
Energy             :  -732.2541721112916093 Eh
Basis              : AO
                                X                 Y                 Z
Electronic contribution:      0.042866507      -0.014834285       0.136353677
Nuclear contribution   :     -0.013886946       0.002517542      -0.035501186
                        -----------------------------------------
Total Dipole Moment    :      0.028979561      -0.012316743       0.100852491
                        -----------------------------------------
Magnitude (a.u.)       :      0.105653879
Magnitude (Debye)      :      0.268550818

VIBRATIONAL FREQUENCIES
-----------------------

Scaling factor for frequencies =  1.000000000  (already applied!)

     0:       0.00 cm**-1
     1:       0.00 cm**-1
     2:       0.00 cm**-1
     3:       0.00 cm**-1
     4:       0.00 cm**-1
     5:       0.00 cm**-1
     6:     -19.78 cm**-1  ***imaginary mode***
     7:     124.89 cm**-1
     8:     148.12 cm**-1
     9:     223.79 cm**-1
    10:     295.85 cm**-1
    11:     321.96 cm**-1
    12:     398.97 cm**-1
    13:     413.48 cm**-1
    14:     428.45 cm**-1
    15:     468.67 cm**-1
    16:     489.37 cm**-1
    17:     553.43 cm**-1
    18:     646.71 cm**-1
    19:     651.25 cm**-1
    20:     696.80 cm**-1
    21:     702.55 cm**-1
    22:     719.15 cm**-1
    23:     730.34 cm**-1
    24:    1041.95 cm**-1
    25:    1055.83 cm**-1
    26:    1105.48 cm**-1
    27:    1701.13 cm**-1
    28:    1743.18 cm**-1
    29:    1763.13 cm**-1
    30:    1892.83 cm**-1
    31:    1895.13 cm**-1
    32:    1895.68 cm**-1
    33:    1902.77 cm**-1
    34:    1903.39 cm**-1
    35:    1908.88 cm**-1

IR SPECTRUM
-----------

 Mode   freq       eps      Int      T**2         TX        TY        TZ
       cm**-1   L/(mol*cm) km/mol    a.u.
----------------------------------------------------------------------------
  7:    124.89   0.000583    2.95  0.001457  ( 0.010408 -0.001573  0.036694)
  8:    148.12   0.000112    0.56  0.000235  ( 0.009904  0.011051 -0.003870)
  9:    223.79   0.000973    4.92  0.001357  (-0.001130 -0.001349 -0.036796)
 10:    295.85   0.003520   17.79  0.003713  ( 0.052105 -0.031155  0.005210)
 11:    321.96   0.000192    0.97  0.000187  (-0.004072  0.001209 -0.012982)
 12:    398.97   0.001668    8.43  0.001305  (-0.025962  0.025116 -0.000095)
 13:    413.48   0.000199    1.01  0.000151  (-0.001562 -0.000912  0.012136)
 14:    428.45   0.003082   15.58  0.002245  ( 0.000922 -0.004740 -0.047134)
 15:    468.67   0.000334    1.69  0.000223  (-0.014370 -0.000744 -0.003933)
 16:    489.37   0.016016   80.94  0.010213  ( 0.085879 -0.053261  0.001001)
 17:    553.43   0.042021  212.35  0.023694  (-0.012864 -0.009052 -0.153123)
 18:    646.71   0.198155  1001.39  0.095618  ( 0.006594  0.304724 -0.052128)
 19:    651.25   0.138561  700.23  0.066395  (-0.007345  0.059801  0.250530)
 20:    696.80   0.002445   12.36  0.001095  (-0.016267  0.004739  0.028427)
 21:    702.55   0.034730  175.51  0.015426  (-0.095913  0.076324  0.020046)
 22:    719.15   0.027962  141.31  0.012134  ( 0.046001  0.090358 -0.043044)
 23:    730.34   0.031774  160.57  0.013577  ( 0.037397  0.014834  0.109353)
 24:   1041.95   0.051211  258.80  0.015338  (-0.100116  0.027591 -0.067477)
 25:   1055.83   0.044028  222.50  0.013013  ( 0.061371 -0.028891 -0.091717)
 26:   1105.48   0.002463   12.45  0.000695  ( 0.024849 -0.008715  0.001344)
 27:   1701.13   0.014748   74.53  0.002705  ( 0.006951 -0.044235  0.026466)
 28:   1743.18   0.235726  1191.26  0.042200  ( 0.003545 -0.009210  0.205188)
 29:   1763.13   0.247379  1250.15  0.043785  ( 0.028146 -0.206498 -0.018733)
 30:   1892.83   0.000683    3.45  0.000113  (-0.010038 -0.001924 -0.002853)
 31:   1895.13   0.001568    7.92  0.000258  (-0.012614 -0.008873  0.004507)
 32:   1895.68   0.002002   10.12  0.000330  (-0.002493  0.002668 -0.017783)
 33:   1902.77   0.014358   72.56  0.002355  (-0.026396  0.027225 -0.030279)
 34:   1903.39   0.011607   58.66  0.001903  ( 0.019294 -0.027060 -0.028257)
 35:   1908.88   0.112422  568.14  0.018379  (-0.128738 -0.042169  0.005208)

--------------------------
THERMOCHEMISTRY AT 298.15K
--------------------------

Temperature         ...   298.15 K
Pressure            ...     1.00 atm
Total Mass          ...    90.02 AMU
Quasi RRHO          ...     True
Cut-Off Frequency   ...     1.00 cm^-1

Throughout the following assumptions are being made:
  (1) The electronic state is orbitally nondegenerate
  (2) There are no thermally accessible electronically excited states
  (3) Hindered rotations indicated by low frequency modes are not
      treated as such but are treated as vibrations and this may
      cause some error
  (4) All equations used are the standard statistical mechanics
      equations for an ideal gas
  (5) All vibrations are strictly harmonic

freq.     124.89  E(vib)   ...       0.43
freq.     148.12  E(vib)   ...       0.41
freq.     223.79  E(vib)   ...       0.33
freq.     295.85  E(vib)   ...       0.27
freq.     321.96  E(vib)   ...       0.25
freq.     398.97  E(vib)   ...       0.19
freq.     413.48  E(vib)   ...       0.19
freq.     428.45  E(vib)   ...       0.18
freq.     468.67  E(vib)   ...       0.16
freq.     489.37  E(vib)   ...       0.15
freq.     553.43  E(vib)   ...       0.12
freq.     646.71  E(vib)   ...       0.09
freq.     651.25  E(vib)   ...       0.08
freq.     696.80  E(vib)   ...       0.07
freq.     702.55  E(vib)   ...       0.07
freq.     719.15  E(vib)   ...       0.07
freq.     730.34  E(vib)   ...       0.06
freq.    1041.95  E(vib)   ...       0.02
freq.    1055.83  E(vib)   ...       0.02
freq.    1105.48  E(vib)   ...       0.02
freq.    1701.13  E(vib)   ...       0.00
freq.    1743.18  E(vib)   ...       0.00
freq.    1763.13  E(vib)   ...       0.00
freq.    1892.83  E(vib)   ...       0.00
freq.    1895.13  E(vib)   ...       0.00
freq.    1895.68  E(vib)   ...       0.00
freq.    1902.77  E(vib)   ...       0.00
freq.    1903.39  E(vib)   ...       0.00
freq.    1908.88  E(vib)   ...       0.00

------------
INNER ENERGY
------------

The inner energy is: U= E(el) + E(ZPE) + E(vib) + E(rot) + E(trans)
    E(el)   - is the total energy from the electronic structure calculation
              = E(kin-el) + E(nuc-el) + E(el-el) + E(nuc-nuc)
    E(ZPE)  - the the zero temperature vibrational energy from the frequency calculation
    E(vib)  - the the finite temperature correction to E(ZPE) due to population
              of excited vibrational states
    E(rot)  - is the rotational thermal energy
    E(trans)- is the translational thermal energy

Summary of contributions to the inner energy U:
Electronic energy                ...   -732.26325087 Eh
Zero point energy                ...      0.06338583 Eh      39.78 kcal/mol
Thermal vibrational correction   ...      0.00503353 Eh       3.16 kcal/mol
Thermal rotational correction    ...      0.00141627 Eh       0.89 kcal/mol
Thermal translational correction ...      0.00141627 Eh       0.89 kcal/mol
-----------------------------------------------------------------------
Total thermal energy                   -732.19199897 Eh

Summary of corrections to the electronic energy:
(perhaps to be used in another calculation)
Total thermal correction                  0.00786608 Eh       4.94 kcal/mol
Non-thermal (ZPE) correction              0.06338583 Eh      39.78 kcal/mol
-----------------------------------------------------------------------
Total correction                          0.07125190 Eh      44.71 kcal/mol

--------
ENTHALPY
--------

The enthalpy is H = U + kB*T
                kB is Boltzmann's constant
Total thermal energy              ...   -732.19199897 Eh
Thermal Enthalpy correction       ...      0.00094421 Eh       0.59 kcal/mol
-----------------------------------------------------------------------
Total Enthalpy                    ...   -732.19105476 Eh

Note: Only C1 symmetry has been detected, increase convergence thresholds
      if your molecule has a higher symmetry. Symmetry factor of 1.0 is
      used for the rotational entropy correction.

Note: Rotational entropy computed according to Herzberg
Infrared and Raman Spectra, Chapter V,1, Van Nostrand Reinhold, 1945
Point Group:  C1, Symmetry Number:   1
Rotational constants in cm-1:     0.106194     0.104104     0.056562

Vibrational entropy computed according to the QRRHO of S. Grimme
Chem.Eur.J. 2012 18 9955 using a reference frequency of 100.0 cm-1

-------
ENTROPY
-------

The entropy contributions are T*S = T*(S(el)+S(vib)+S(rot)+S(trans))
     S(el)   - electronic entropy
     S(vib)  - vibrational entropy
     S(rot)  - rotational entropy
     S(trans)- translational entropy
The entropies will be listed as multiplied by the temperature to get
units of energy

Electronic entropy                ...      0.00000000 Eh      0.00 kcal/mol
Vibrational entropy               ...      0.00813481 Eh      5.10 kcal/mol
Rotational entropy                ...      0.01299355 Eh      8.15 kcal/mol
Translational entropy             ...      0.01872231 Eh     11.75 kcal/mol
-----------------------------------------------------------------------
Final entropy term                ...      0.03985067 Eh     25.01 kcal/mol

In case the symmetry of your molecule has not been determined correctly
or in case you have a reason to use a different symmetry number we print
out the resulting rotational entropy values for sn=1,12:

 non-linear molecules -----------------------------------
|  sn= 1 | S(rot)=       0.01299355 Eh      8.15 kcal/mol|
|  sn= 2 | S(rot)=       0.01233909 Eh      7.74 kcal/mol|
|  sn= 3 | S(rot)=       0.01195626 Eh      7.50 kcal/mol|
|  sn= 4 | S(rot)=       0.01168463 Eh      7.33 kcal/mol|
|  sn= 5 | S(rot)=       0.01147395 Eh      7.20 kcal/mol|
|  sn= 6 | S(rot)=       0.01130180 Eh      7.09 kcal/mol|
|  sn= 7 | S(rot)=       0.01115626 Eh      7.00 kcal/mol|
|  sn= 8 | S(rot)=       0.01103018 Eh      6.92 kcal/mol|
|  sn= 9 | S(rot)=       0.01091897 Eh      6.85 kcal/mol|
|  sn=10 | S(rot)=       0.01081949 Eh      6.79 kcal/mol|
|  sn=11 | S(rot)=       0.01072950 Eh      6.73 kcal/mol|
|  sn=12 | S(rot)=       0.01064735 Eh      6.68 kcal/mol|
 linear molecules ---------------------------------------
|  Dinfh | S(rot)=       0.00803789 Eh      5.04 kcal/mol|
|  Cinfv | S(rot)=       0.00869234 Eh      5.45 kcal/mol|
 --------------------------------------------------------

-------------------
GIBBS FREE ENERGY
-------------------

The Gibbs free energy is G = H - T*S

Total enthalpy                    ...   -732.19105476 Eh
Total entropy correction          ...     -0.03985067 Eh    -25.01 kcal/mol
-----------------------------------------------------------------------
Final Gibbs free energy         ...   -732.23090543 Eh

For completeness - the Gibbs free energy minus the electronic energy
G-E(el)                           ...      0.03234544 Eh     20.30 kcal/mol

                             ****ORCA TERMINATED NORMALLY****
TOTAL RUN TIME: 0 days 0 hours 5 minutes 57 seconds 827 msec
