                         Program Version 6.1.0  -  RELEASE   -
|  1> # Geometry optimization for (AlH3)n cluster
|  2>
|  3> %pal nprocs 24  end
|  4>
|  5> %geom MaxIter 500 end
|  6>
|  7>
|  8> ! PBE def2-TZVP
|  9> ! RKS	# closed shell for AlH3
| 10> ! D3    #  dispersion correction
| 11> ! Freq 	# Frequency analysis to check the stabiltity of the structures
| 12>
| 13> ! NoPop # population analysis not necessary
| 14>
| 15> ! DEFGRID3
| 16> ! TightSCF
| 17> ! TightOpt
| 18>
| 19> ! SmallPrint
| 20>
| 21>
| 22> * xyzFile 0 1 start.xyz # only maingroup elements H and Al so there should be no net spin
| 23>
| 24>                          ****END OF INPUT****
 Total Charge           Charge          ....    0
 Multiplicity           Mult            ....    1
 Number of Electrons    NEL             ....   16
Dispersion correction           -0.001079085
FINAL SINGLE POINT ENERGY      -244.051736789973
Dispersion correction             ... done (  0.2 sec)
Dispersion correction           -0.001079271
FINAL SINGLE POINT ENERGY      -244.051742090113
Dispersion correction             ... done (  0.1 sec)
Dispersion correction           -0.001079641
FINAL SINGLE POINT ENERGY      -244.051746193447
Dispersion correction             ... done (  0.1 sec)
                    ***********************HURRAY********************

CARTESIAN COORDINATES (ANGSTROEM)
---------------------------------
  Al    -1.365110    0.622413   -0.208480
  H     -0.538579    0.414764    1.140518
  H     -1.297630    2.018238   -0.978666
  H     -2.259130   -0.565764   -0.787303

 Multiplicity           Mult            ....    1
 Number of Electrons    NEL             ....   16
 Basis Dimension        Dim             ....   55

ORBITAL ENERGIES
----------------

  NO   OCC          E(Eh)            E(eV)
   0   2.0000     -55.373378     -1506.7862
   1   2.0000      -3.934324      -107.0584
   2   2.0000      -2.544026       -69.2265
   3   2.0000      -2.532308       -68.9076
   4   2.0000      -2.532308       -68.9076
   5   2.0000      -0.377028       -10.2595
   6   2.0000      -0.267961        -7.2916
   7   2.0000      -0.267960        -7.2916
   8   0.0000      -0.093261        -2.5378
   9   0.0000       0.010370         0.2822
  10   0.0000       0.029300         0.7973
  11   0.0000       0.029301         0.7973
  12   0.0000       0.097925         2.6647

-------
TIMINGS
-------

Dispersion correction           -0.001079638
FINAL SINGLE POINT ENERGY      -244.051746193649

DIPOLE MOMENT
-------------

Method             : SCF
Type of density    : Electron Density
Multiplicity       :   1
Irrep              :   0
Energy             :  -244.0506665554913752 Eh
Basis              : AO
                                X                 Y                 Z
Electronic contribution:      0.000012527       0.000000531       0.000017707
Nuclear contribution   :     -0.000007227      -0.000000255      -0.000010065
                        -----------------------------------------
Total Dipole Moment    :      0.000005300       0.000000276       0.000007642
                        -----------------------------------------
Magnitude (a.u.)       :      0.000009305
Magnitude (Debye)      :      0.000023650

VIBRATIONAL FREQUENCIES
-----------------------

Scaling factor for frequencies =  1.000000000  (already applied!)

     0:       0.00 cm**-1
     1:       0.00 cm**-1
     2:       0.00 cm**-1
     3:       0.00 cm**-1
     4:       0.00 cm**-1
     5:       0.00 cm**-1
     6:     680.86 cm**-1
     7:     766.27 cm**-1
     8:     766.28 cm**-1
     9:    1867.47 cm**-1
    10:    1882.72 cm**-1
    11:    1882.72 cm**-1

IR SPECTRUM
-----------

 Mode   freq       eps      Int      T**2         TX        TY        TZ
       cm**-1   L/(mol*cm) km/mol    a.u.
----------------------------------------------------------------------------
  6:    680.86   0.056855  287.32  0.026059  ( 0.126138 -0.053295 -0.085485)
  7:    766.27   0.038211  193.10  0.015561  (-0.053535 -0.112309 -0.009051)
  8:    766.28   0.038203  193.06  0.015558  ( 0.056484 -0.035445  0.105410)
  9:   1867.47   0.000000    0.00  0.000000  ( 0.000010 -0.000025  0.000029)
 10:   1882.72   0.048582  245.51  0.008053  (-0.031350 -0.083872  0.005933)
 11:   1882.72   0.048574  245.47  0.008051  (-0.046376  0.011968 -0.075876)

--------------------------
THERMOCHEMISTRY AT 298.15K
--------------------------

Temperature         ...   298.15 K
Pressure            ...     1.00 atm
Total Mass          ...    30.01 AMU
Quasi RRHO          ...     True
Cut-Off Frequency   ...     1.00 cm^-1

Throughout the following assumptions are being made:
  (1) The electronic state is orbitally nondegenerate
  (2) There are no thermally accessible electronically excited states
  (3) Hindered rotations indicated by low frequency modes are not
      treated as such but are treated as vibrations and this may
      cause some error
  (4) All equations used are the standard statistical mechanics
      equations for an ideal gas
  (5) All vibrations are strictly harmonic

freq.     680.86  E(vib)   ...       0.08
freq.     766.27  E(vib)   ...       0.06
freq.     766.28  E(vib)   ...       0.06
freq.    1867.47  E(vib)   ...       0.00
freq.    1882.72  E(vib)   ...       0.00
freq.    1882.72  E(vib)   ...       0.00

------------
INNER ENERGY
------------

The inner energy is: U= E(el) + E(ZPE) + E(vib) + E(rot) + E(trans)
    E(el)   - is the total energy from the electronic structure calculation
              = E(kin-el) + E(nuc-el) + E(el-el) + E(nuc-nuc)
    E(ZPE)  - the the zero temperature vibrational energy from the frequency calculation
    E(vib)  - the the finite temperature correction to E(ZPE) due to population
              of excited vibrational states
    E(rot)  - is the rotational thermal energy
    E(trans)- is the translational thermal energy

Summary of contributions to the inner energy U:
Electronic energy                ...   -244.05174619 Eh
Zero point energy                ...      0.01787525 Eh      11.22 kcal/mol
Thermal vibrational correction   ...      0.00030102 Eh       0.19 kcal/mol
Thermal rotational correction    ...      0.00141627 Eh       0.89 kcal/mol
Thermal translational correction ...      0.00141627 Eh       0.89 kcal/mol
-----------------------------------------------------------------------
Total thermal energy                   -244.03073739 Eh

Summary of corrections to the electronic energy:
(perhaps to be used in another calculation)
Total thermal correction                  0.00313356 Eh       1.97 kcal/mol
Non-thermal (ZPE) correction              0.01787525 Eh      11.22 kcal/mol
-----------------------------------------------------------------------
Total correction                          0.02100881 Eh      13.18 kcal/mol

--------
ENTHALPY
--------

The enthalpy is H = U + kB*T
                kB is Boltzmann's constant
Total thermal energy              ...   -244.03073739 Eh
Thermal Enthalpy correction       ...      0.00094421 Eh       0.59 kcal/mol
-----------------------------------------------------------------------
Total Enthalpy                    ...   -244.02979318 Eh

Note: Rotational entropy computed according to Herzberg
Infrared and Raman Spectra, Chapter V,1, Van Nostrand Reinhold, 1945
Point Group:  D3h, Symmetry Number:   6
Rotational constants in cm-1:     4.379021     4.378977     2.189500

Vibrational entropy computed according to the QRRHO of S. Grimme
Chem.Eur.J. 2012 18 9955 using a reference frequency of 100.0 cm-1

-------
ENTROPY
-------

The entropy contributions are T*S = T*(S(el)+S(vib)+S(rot)+S(trans))
     S(el)   - electronic entropy
     S(vib)  - vibrational entropy
     S(rot)  - rotational entropy
     S(trans)- translational entropy
The entropies will be listed as multiplied by the temperature to get
units of energy

Electronic entropy                ...      0.00000000 Eh      0.00 kcal/mol
Vibrational entropy               ...      0.00038503 Eh      0.24 kcal/mol
Rotational entropy                ...      0.00605472 Eh      3.80 kcal/mol
Translational entropy             ...      0.01716637 Eh     10.77 kcal/mol
-----------------------------------------------------------------------
Final entropy term                ...      0.02360612 Eh     14.81 kcal/mol

In case the symmetry of your molecule has not been determined correctly
or in case you have a reason to use a different symmetry number we print
out the resulting rotational entropy values for sn=1,12:

 non-linear molecules -----------------------------------
|  sn= 1 | S(rot)=       0.00774646 Eh      4.86 kcal/mol|
|  sn= 2 | S(rot)=       0.00709200 Eh      4.45 kcal/mol|
|  sn= 3 | S(rot)=       0.00670917 Eh      4.21 kcal/mol|
|  sn= 4 | S(rot)=       0.00643755 Eh      4.04 kcal/mol|
|  sn= 5 | S(rot)=       0.00622686 Eh      3.91 kcal/mol|
|  sn= 6 | S(rot)=       0.00605472 Eh      3.80 kcal/mol|
|  sn= 7 | S(rot)=       0.00590917 Eh      3.71 kcal/mol|
|  sn= 8 | S(rot)=       0.00578309 Eh      3.63 kcal/mol|
|  sn= 9 | S(rot)=       0.00567188 Eh      3.56 kcal/mol|
|  sn=10 | S(rot)=       0.00557240 Eh      3.50 kcal/mol|
|  sn=11 | S(rot)=       0.00548241 Eh      3.44 kcal/mol|
|  sn=12 | S(rot)=       0.00540026 Eh      3.39 kcal/mol|
 linear molecules ---------------------------------------
|  Dinfh | S(rot)=       0.00458588 Eh      2.88 kcal/mol|
|  Cinfv | S(rot)=       0.00524033 Eh      3.29 kcal/mol|
 --------------------------------------------------------

-------------------
GIBBS FREE ENERGY
-------------------

The Gibbs free energy is G = H - T*S

Total enthalpy                    ...   -244.02979318 Eh
Total entropy correction          ...     -0.02360612 Eh    -14.81 kcal/mol
-----------------------------------------------------------------------
Final Gibbs free energy         ...   -244.05339929 Eh

For completeness - the Gibbs free energy minus the electronic energy
G-E(el)                           ...     -0.00165310 Eh     -1.04 kcal/mol

                             ****ORCA TERMINATED NORMALLY****
TOTAL RUN TIME: 0 days 0 hours 0 minutes 36 seconds 171 msec
